<?xml version="1.0" encoding="UTF-8"?>

<!-- generated on 2025-03-26 01:00:29 by Eclipse SUMO GUI Version 1.22.0
<sumoConfiguration xmlns:xsi="http://www.w3.org/2001/XMLSchema-instance" xsi:noNamespaceSchemaLocation="http://sumo.dlr.de/xsd/sumoConfiguration.xsd">

    <input>
        <net-file value="osm.net.xml.gz"/>
        <route-files value="bsdroute.rou.xml"/>
        <additional-files value="detectors.add.xml"/>
    </input>

    <output>
        <summary-output value="summary.xml"/>
        <tripinfo-output value="tripinfo.xml"/>
    </output>

    <processing>
        <ignore-route-errors value="true"/>
        <time-to-teleport value="-1"/>
        <tls.actuated.jam-threshold value="30"/>
    </processing>

    <routing>
        <device.rerouting.adaptation-steps value="18"/>
        <device.rerouting.adaptation-interval value="10"/>
    </routing>

    <report>
        <verbose value="true"/>
        <duration-log.statistics value="true"/>
        <no-step-log value="true"/>
    </report>

    <traci_server>
        <remote-port value="60395"/>
    </traci_server>

    <gui_only>
        <gui-settings-file value="osm.view.xml"/>
    </gui_only>

</sumoConfiguration>
-->

<tripinfos xmlns:xsi="http://www.w3.org/2001/XMLSchema-instance" xsi:noNamespaceSchemaLocation="http://sumo.dlr.de/xsd/tripinfo_file.xsd">
    <tripinfo id="flow_passenger_ns.0" depart="0.00" departLane="749313693_1" departPos="62.10" departSpeed="20.00" departDelay="0.00" arrival="12.00" arrivalLane="757092063_3" arrivalPos="47.17" arrivalSpeed="19.13" duration="12.00" routeLength="201.33" waitingTime="0.00" waitingCount="0" stopTime="0.00" timeLoss="1.19" rerouteNo="0" devices="tripinfo_flow_passenger_ns.0" vType="passenger" speedFactor="0.89" vaporized=""/>
    <tripinfo id="flow_emergency_ns.0" depart="0.00" departLane="749313693_0" departPos="7.10" departSpeed="31.19" departDelay="0.00" arrival="13.00" arrivalLane="757092063_2" arrivalPos="47.17" arrivalSpeed="22.49" duration="13.00" routeLength="256.33" waitingTime="0.00" waitingCount="0" stopTime="0.00" timeLoss="4.43" rerouteNo="0" devices="tripinfo_flow_emergency_ns.0" vType="emergency" speedFactor="1.12" vaporized=""/>
    <tripinfo id="flow_truck_ns.0" depart="3.00" departLane="749313693_2" departPos="89.02" departSpeed="13.24" departDelay="3.00" arrival="15.00" arrivalLane="757092063_4" arrivalPos="47.17" arrivalSpeed="16.67" duration="12.00" routeLength="174.41" waitingTime="0.00" waitingCount="0" stopTime="0.00" timeLoss="1.60" rerouteNo="0" devices="tripinfo_flow_truck_ns.0" vType="truck" speedFactor="1.17" vaporized=""/>
    <tripinfo id="flow_passenger_ns.3" depart="6.00" departLane="749313693_1" departPos="83.20" departSpeed="20.00" departDelay="0.00" arrival="16.00" arrivalLane="757092063_3" arrivalPos="47.17" arrivalSpeed="19.38" duration="10.00" routeLength="180.23" waitingTime="0.00" waitingCount="0" stopTime="0.00" timeLoss="0.74" rerouteNo="0" devices="tripinfo_flow_passenger_ns.3" vType="passenger" speedFactor="1.17" vaporized=""/>
    <tripinfo id="flow_passenger_nw.0" depart="0.00" departLane="749313693_2" departPos="72.43" departSpeed="20.00" departDelay="0.00" arrival="18.00" arrivalLane="978400303#1_3" arrivalPos="131.20" arrivalSpeed="19.64" duration="18.00" routeLength="254.66" waitingTime="0.00" waitingCount="0" stopTime="0.00" timeLoss="2.42" rerouteNo="0" devices="tripinfo_flow_passenger_nw.0" vType="passenger" speedFactor="0.83" vaporized=""/>
    <tripinfo id="flow_emergency_ne.0" depart="0.00" departLane="749313693_2" departPos="14.20" departSpeed="21.03" departDelay="0.00" arrival="19.00" arrivalLane="563175146#1_0" arrivalPos="228.90" arrivalSpeed="28.50" duration="19.00" routeLength="370.51" waitingTime="0.00" waitingCount="0" stopTime="0.00" timeLoss="4.33" rerouteNo="0" devices="tripinfo_flow_emergency_ne.0" vType="emergency" speedFactor="1.05" vaporized=""/>
    <tripinfo id="flow_emergency_nw.0" depart="1.00" departLane="749313693_1" departPos="7.23" departSpeed="19.15" departDelay="1.00" arrival="19.00" arrivalLane="978400303#1_3" arrivalPos="131.20" arrivalSpeed="25.41" duration="18.00" routeLength="319.86" waitingTime="0.00" waitingCount="0" stopTime="0.00" timeLoss="4.20" rerouteNo="0" devices="tripinfo_flow_emergency_nw.0" vType="emergency" speedFactor="0.99" vaporized=""/>
    <tripinfo id="flow_passenger_ns.2" depart="4.00" departLane="749313693_1" departPos="18.42" departSpeed="10.55" departDelay="0.00" arrival="19.00" arrivalLane="757092063_3" arrivalPos="47.17" arrivalSpeed="19.15" duration="15.00" routeLength="245.01" waitingTime="0.00" waitingCount="0" stopTime="0.00" timeLoss="2.33" rerouteNo="0" devices="tripinfo_flow_passenger_ns.2" vType="passenger" speedFactor="1.09" vaporized=""/>
    <tripinfo id="flow_passenger_ns.4" depart="8.00" departLane="749313693_0" departPos="73.02" departSpeed="17.99" departDelay="0.00" arrival="20.00" arrivalLane="757092063_2" arrivalPos="47.17" arrivalSpeed="19.87" duration="12.00" routeLength="190.41" waitingTime="0.00" waitingCount="0" stopTime="0.00" timeLoss="1.49" rerouteNo="0" devices="tripinfo_flow_passenger_ns.4" vType="passenger" speedFactor="0.97" vaporized=""/>
    <tripinfo id="flow_bus_ns.0" depart="0.00" departLane="749313693_0" departPos="0.00" departSpeed="0.00" departDelay="0.00" arrival="23.00" arrivalLane="757092063_2" arrivalPos="47.17" arrivalSpeed="15.19" duration="23.00" routeLength="263.43" waitingTime="0.00" waitingCount="0" stopTime="0.00" timeLoss="6.26" rerouteNo="0" devices="tripinfo_flow_bus_ns.0" vType="bus" speedFactor="1.08" vaporized=""/>
    <tripinfo id="flow_passenger_ne.0" depart="0.00" departLane="749313693_1" departPos="0.00" departSpeed="20.00" departDelay="0.00" arrival="24.00" arrivalLane="563175146#1_0" arrivalPos="228.90" arrivalSpeed="19.23" duration="24.00" routeLength="384.71" waitingTime="0.00" waitingCount="0" stopTime="0.00" timeLoss="3.65" rerouteNo="0" devices="tripinfo_flow_passenger_ne.0" vType="passenger" speedFactor="0.97" vaporized=""/>
    <tripinfo id="flow_passenger_nw.1" depart="5.00" departLane="749313693_2" departPos="40.74" departSpeed="17.28" departDelay="0.33" arrival="24.00" arrivalLane="978400303#1_3" arrivalPos="131.20" arrivalSpeed="19.92" duration="19.00" routeLength="286.35" waitingTime="0.00" waitingCount="0" stopTime="0.00" timeLoss="2.04" rerouteNo="0" devices="tripinfo_flow_passenger_nw.1" vType="passenger" speedFactor="0.88" vaporized=""/>
</tripinfos>
