<?xml version="1.0" encoding="UTF-8"?>

<!-- generated on 2025-03-26 00:16:11 by Eclipse SUMO GUI Version 1.22.0
<sumoConfiguration xmlns:xsi="http://www.w3.org/2001/XMLSchema-instance" xsi:noNamespaceSchemaLocation="http://sumo.dlr.de/xsd/sumoConfiguration.xsd">

    <input>
        <net-file value="osm.net.xml"/>
        <route-files value="bsdroute.rou.xml"/>
        <additional-files value="detectors.add.xml"/>
    </input>

    <output>
        <summary-output value="summary.xml"/>
        <tripinfo-output value="tripinfo.xml"/>
    </output>

    <processing>
        <ignore-route-errors value="true"/>
        <time-to-teleport value="-1"/>
        <tls.actuated.jam-threshold value="30"/>
    </processing>

    <routing>
        <device.rerouting.adaptation-steps value="18"/>
        <device.rerouting.adaptation-interval value="10"/>
    </routing>

    <report>
        <verbose value="true"/>
        <duration-log.statistics value="true"/>
        <no-step-log value="true"/>
    </report>

    <traci_server>
        <remote-port value="60084"/>
    </traci_server>

    <gui_only>
        <gui-settings-file value="osm.view.xml"/>
    </gui_only>

</sumoConfiguration>
-->

<tripinfos xmlns:xsi="http://www.w3.org/2001/XMLSchema-instance" xsi:noNamespaceSchemaLocation="http://sumo.dlr.de/xsd/tripinfo_file.xsd">
    <tripinfo id="flow_emergency_sw.0" depart="0.00" departLane="1053267667#3_0" departPos="22.87" departSpeed="26.15" departDelay="0.00" arrival="11.00" arrivalLane="978400303#1_0" arrivalPos="131.20" arrivalSpeed="25.71" duration="11.00" routeLength="254.38" waitingTime="0.00" waitingCount="0" stopTime="0.00" timeLoss="0.67" rerouteNo="0" devices="tripinfo_flow_emergency_sw.0" vType="emergency" speedFactor="0.94" vaporized=""/>
    <tripinfo id="flow_passenger_ns.0" depart="0.00" departLane="749313693_1" departPos="62.10" departSpeed="20.00" departDelay="0.00" arrival="12.00" arrivalLane="757092063_3" arrivalPos="47.16" arrivalSpeed="19.83" duration="12.00" routeLength="208.27" waitingTime="0.00" waitingCount="0" stopTime="0.00" timeLoss="1.39" rerouteNo="0" devices="tripinfo_flow_passenger_ns.0" vType="passenger" speedFactor="0.89" vaporized=""/>
    <tripinfo id="flow_emergency_ns.0" depart="0.00" departLane="749313693_0" departPos="7.10" departSpeed="31.19" departDelay="0.00" arrival="13.00" arrivalLane="757092063_2" arrivalPos="47.16" arrivalSpeed="22.75" duration="13.00" routeLength="263.27" waitingTime="0.00" waitingCount="0" stopTime="0.00" timeLoss="4.55" rerouteNo="0" devices="tripinfo_flow_emergency_ns.0" vType="emergency" speedFactor="1.12" vaporized=""/>
    <tripinfo id="flow_emergency_sn.0" depart="0.00" departLane="1053267667#3_2" departPos="0.00" departSpeed="24.40" departDelay="0.00" arrival="15.00" arrivalLane="749988360#2_2" arrivalPos="63.94" arrivalSpeed="23.95" duration="15.00" routeLength="243.11" waitingTime="0.00" waitingCount="0" stopTime="0.00" timeLoss="4.64" rerouteNo="0" devices="tripinfo_flow_emergency_sn.0" vType="emergency" speedFactor="0.88" vaporized=""/>
    <tripinfo id="flow_passenger_ns.1" depart="3.00" departLane="749313693_2" departPos="95.95" departSpeed="14.93" departDelay="0.00" arrival="15.00" arrivalLane="757092063_4" arrivalPos="47.16" arrivalSpeed="19.69" duration="12.00" routeLength="174.42" waitingTime="0.00" waitingCount="0" stopTime="0.00" timeLoss="2.46" rerouteNo="0" devices="tripinfo_flow_passenger_ns.1" vType="passenger" speedFactor="1.03" vaporized=""/>
    <tripinfo id="flow_emergency_ne.0" depart="0.00" departLane="749313693_2" departPos="14.20" departSpeed="22.61" departDelay="0.00" arrival="19.00" arrivalLane="563175146#1_0" arrivalPos="228.90" arrivalSpeed="28.54" duration="19.00" routeLength="377.44" waitingTime="0.00" waitingCount="0" stopTime="0.00" timeLoss="4.27" rerouteNo="0" devices="tripinfo_flow_emergency_ne.0" vType="emergency" speedFactor="1.05" vaporized=""/>
    <tripinfo id="flow_truck_sw.0" depart="0.00" departLane="1053267667#3_2" departPos="81.21" departSpeed="0.00" departDelay="0.00" arrival="21.00" arrivalLane="978400303#1_0" arrivalPos="131.20" arrivalSpeed="17.74" duration="21.00" routeLength="196.04" waitingTime="1.00" waitingCount="1" stopTime="0.00" timeLoss="9.50" rerouteNo="0" devices="tripinfo_flow_truck_sw.0" vType="truck" speedFactor="1.18" vaporized=""/>
    <tripinfo id="flow_passenger_sn.0" depart="2.00" departLane="1053267667#3_1" departPos="26.97" departSpeed="13.34" departDelay="2.00" arrival="22.00" arrivalLane="749988360#2_0" arrivalPos="63.94" arrivalSpeed="18.83" duration="20.00" routeLength="216.14" waitingTime="0.00" waitingCount="0" stopTime="0.00" timeLoss="8.46" rerouteNo="0" devices="tripinfo_flow_passenger_sn.0" vType="passenger" speedFactor="0.92" vaporized=""/>
    <tripinfo id="flow_passenger_sw.0" depart="0.00" departLane="1053267667#3_2" departPos="74.11" departSpeed="0.00" departDelay="0.00" arrival="22.00" arrivalLane="978400303#1_0" arrivalPos="131.20" arrivalSpeed="19.60" duration="22.00" routeLength="203.14" waitingTime="2.00" waitingCount="2" stopTime="0.00" timeLoss="11.75" rerouteNo="0" devices="tripinfo_flow_passenger_sw.0" vType="passenger" speedFactor="0.95" vaporized=""/>
    <tripinfo id="flow_bus_ns.0" depart="0.00" departLane="749313693_0" departPos="0.00" departSpeed="0.00" departDelay="0.00" arrival="23.00" arrivalLane="757092063_2" arrivalPos="47.16" arrivalSpeed="15.68" duration="23.00" routeLength="270.37" waitingTime="0.00" waitingCount="0" stopTime="0.00" timeLoss="6.07" rerouteNo="0" devices="tripinfo_flow_bus_ns.0" vType="bus" speedFactor="1.08" vaporized=""/>
    <tripinfo id="flow_passenger_ne.0" depart="0.00" departLane="749313693_1" departPos="0.00" departSpeed="20.00" departDelay="0.00" arrival="24.00" arrivalLane="563175146#1_0" arrivalPos="228.90" arrivalSpeed="19.86" duration="24.00" routeLength="391.64" waitingTime="0.00" waitingCount="0" stopTime="0.00" timeLoss="3.34" rerouteNo="0" devices="tripinfo_flow_passenger_ne.0" vType="passenger" speedFactor="0.97" vaporized=""/>
    <tripinfo id="flow_bus_sn.0" depart="0.00" departLane="1053267667#3_1" departPos="7.10" departSpeed="0.00" departDelay="0.00" arrival="25.00" arrivalLane="749988360#2_1" arrivalPos="63.94" arrivalSpeed="15.78" duration="25.00" routeLength="236.01" waitingTime="1.00" waitingCount="1" stopTime="0.00" timeLoss="9.91" rerouteNo="0" devices="tripinfo_flow_bus_sn.0" vType="bus" speedFactor="1.05" vaporized=""/>
    <tripinfo id="flow_passenger_ns.2" depart="6.00" departLane="749313693_2" departPos="9.93" departSpeed="9.02" departDelay="0.00" arrival="25.00" arrivalLane="757092063_3" arrivalPos="47.16" arrivalSpeed="18.87" duration="19.00" routeLength="260.44" waitingTime="0.00" waitingCount="0" stopTime="0.00" timeLoss="5.38" rerouteNo="0" devices="tripinfo_flow_passenger_ns.2" vType="passenger" speedFactor="1.00" vaporized=""/>
    <tripinfo id="flow_truck_sn.0" depart="2.00" departLane="1053267667#3_0" departPos="0.00" departSpeed="10.56" departDelay="2.00" arrival="27.00" arrivalLane="749988360#2_0" arrivalPos="63.94" arrivalSpeed="17.84" duration="25.00" routeLength="243.11" waitingTime="0.00" waitingCount="0" stopTime="0.00" timeLoss="10.60" rerouteNo="0" devices="tripinfo_flow_truck_sn.0" vType="truck" speedFactor="0.97" vaporized=""/>
    <tripinfo id="flow_passenger_sn.2" depart="6.00" departLane="1053267667#3_1" departPos="0.00" departSpeed="4.79" departDelay="0.00" arrival="27.00" arrivalLane="749988360#2_1" arrivalPos="63.94" arrivalSpeed="18.85" duration="21.00" routeLength="243.11" waitingTime="0.00" waitingCount="0" stopTime="0.00" timeLoss="7.98" rerouteNo="0" devices="tripinfo_flow_passenger_sn.2" vType="passenger" speedFactor="0.90" vaporized=""/>
    <tripinfo id="flow_bus_sw.0" depart="0.00" departLane="1053267667#3_1" departPos="14.20" departSpeed="0.00" departDelay="0.00" arrival="28.00" arrivalLane="978400303#1_0" arrivalPos="131.20" arrivalSpeed="15.53" duration="28.00" routeLength="263.05" waitingTime="0.00" waitingCount="0" stopTime="0.00" timeLoss="10.78" rerouteNo="0" devices="tripinfo_flow_bus_sw.0" vType="bus" speedFactor="0.89" vaporized=""/>
    <tripinfo id="flow_passenger_sn.3" depart="10.00" departLane="1053267667#3_1" departPos="0.00" departSpeed="5.40" departDelay="1.00" arrival="28.00" arrivalLane="749988360#2_1" arrivalPos="63.94" arrivalSpeed="18.74" duration="18.00" routeLength="243.11" waitingTime="0.00" waitingCount="0" stopTime="0.00" timeLoss="5.48" rerouteNo="0" devices="tripinfo_flow_passenger_sn.3" vType="passenger" speedFactor="1.10" vaporized=""/>
    <tripinfo id="flow_passenger_sw.1" depart="10.00" departLane="1053267667#3_0" departPos="0.00" departSpeed="5.64" departDelay="1.00" arrival="29.00" arrivalLane="978400303#1_0" arrivalPos="131.20" arrivalSpeed="17.98" duration="19.00" routeLength="277.25" waitingTime="0.00" waitingCount="0" stopTime="0.00" timeLoss="4.95" rerouteNo="0" devices="tripinfo_flow_passenger_sw.1" vType="passenger" speedFactor="1.00" vaporized=""/>
    <tripinfo id="flow_passenger_ns.4" depart="12.00" departLane="749313693_0" departPos="0.00" departSpeed="6.93" departDelay="0.00" arrival="30.00" arrivalLane="757092063_3" arrivalPos="47.16" arrivalSpeed="19.48" duration="18.00" routeLength="270.37" waitingTime="0.00" waitingCount="0" stopTime="0.00" timeLoss="4.04" rerouteNo="0" devices="tripinfo_flow_passenger_ns.4" vType="passenger" speedFactor="0.97" vaporized=""/>
    <tripinfo id="flow_passenger_sn.1" depart="3.00" departLane="1053267667#3_2" departPos="0.00" departSpeed="2.50" departDelay="0.00" arrival="31.00" arrivalLane="749988360#2_1" arrivalPos="63.94" arrivalSpeed="19.22" duration="28.00" routeLength="243.11" waitingTime="0.00" waitingCount="0" stopTime="0.00" timeLoss="15.77" rerouteNo="0" devices="tripinfo_flow_passenger_sn.1" vType="passenger" speedFactor="0.96" vaporized=""/>
    <tripinfo id="flow_truck_ns.0" depart="3.00" departLane="749313693_0" departPos="0.00" departSpeed="1.33" departDelay="3.00" arrival="32.00" arrivalLane="757092063_2" arrivalPos="47.16" arrivalSpeed="16.69" duration="29.00" routeLength="270.37" waitingTime="0.00" waitingCount="0" stopTime="0.00" timeLoss="13.17" rerouteNo="0" devices="tripinfo_flow_truck_ns.0" vType="truck" speedFactor="1.17" vaporized=""/>
    <tripinfo id="flow_passenger_ns.3" depart="9.00" departLane="749313693_0" departPos="0.00" departSpeed="10.73" departDelay="0.00" arrival="33.00" arrivalLane="757092063_3" arrivalPos="47.16" arrivalSpeed="19.51" duration="24.00" routeLength="270.37" waitingTime="0.00" waitingCount="0" stopTime="0.00" timeLoss="10.44" rerouteNo="0" devices="tripinfo_flow_passenger_ns.3" vType="passenger" speedFactor="1.02" vaporized=""/>
    <tripinfo id="flow_passenger_sn.4" depart="12.00" departLane="1053267667#3_2" departPos="0.00" departSpeed="2.83" departDelay="0.00" arrival="33.00" arrivalLane="749988360#2_1" arrivalPos="63.94" arrivalSpeed="18.97" duration="21.00" routeLength="243.11" waitingTime="0.00" waitingCount="0" stopTime="0.00" timeLoss="8.34" rerouteNo="0" devices="tripinfo_flow_passenger_sn.4" vType="passenger" speedFactor="1.08" vaporized=""/>
    <tripinfo id="flow_passenger_sn.5" depart="15.00" departLane="1053267667#3_1" departPos="0.00" departSpeed="8.57" departDelay="0.00" arrival="34.00" arrivalLane="749988360#2_1" arrivalPos="63.94" arrivalSpeed="19.19" duration="19.00" routeLength="243.11" waitingTime="0.00" waitingCount="0" stopTime="0.00" timeLoss="6.83" rerouteNo="0" devices="tripinfo_flow_passenger_sn.5" vType="passenger" speedFactor="0.88" vaporized=""/>
    <tripinfo id="flow_bus_ne.0" depart="0.00" departLane="749313693_2" departPos="0.00" departSpeed="0.00" departDelay="0.00" arrival="35.00" arrivalLane="563175146#1_0" arrivalPos="228.90" arrivalSpeed="14.95" duration="35.00" routeLength="391.64" waitingTime="1.00" waitingCount="1" stopTime="0.00" timeLoss="9.34" rerouteNo="0" devices="tripinfo_flow_bus_ne.0" vType="bus" speedFactor="1.01" vaporized=""/>
    <tripinfo id="flow_passenger_ns.6" depart="18.00" departLane="749313693_1" departPos="0.00" departSpeed="17.42" departDelay="0.00" arrival="35.00" arrivalLane="757092063_3" arrivalPos="47.16" arrivalSpeed="19.39" duration="17.00" routeLength="270.37" waitingTime="0.00" waitingCount="0" stopTime="0.00" timeLoss="3.05" rerouteNo="0" devices="tripinfo_flow_passenger_ns.6" vType="passenger" speedFactor="1.02" vaporized=""/>
    <tripinfo id="flow_truck_ne.0" depart="1.00" departLane="749313693_2" departPos="0.00" departSpeed="1.19" departDelay="1.00" arrival="36.00" arrivalLane="563175146#1_0" arrivalPos="228.90" arrivalSpeed="16.43" duration="35.00" routeLength="391.64" waitingTime="0.00" waitingCount="0" stopTime="0.00" timeLoss="12.42" rerouteNo="0" devices="tripinfo_flow_truck_ne.0" vType="truck" speedFactor="1.01" vaporized=""/>
    <tripinfo id="flow_passenger_sn.7" depart="21.00" departLane="1053267667#3_1" departPos="19.20" departSpeed="2.97" departDelay="0.00" arrival="36.00" arrivalLane="749988360#2_1" arrivalPos="63.94" arrivalSpeed="19.16" duration="15.00" routeLength="223.91" waitingTime="0.00" waitingCount="0" stopTime="0.00" timeLoss="3.70" rerouteNo="0" devices="tripinfo_flow_passenger_sn.7" vType="passenger" speedFactor="1.00" vaporized=""/>
    <tripinfo id="flow_passenger_sw.2" depart="18.00" departLane="1053267667#3_2" departPos="15.33" departSpeed="7.90" departDelay="0.00" arrival="37.00" arrivalLane="978400303#1_0" arrivalPos="131.20" arrivalSpeed="19.07" duration="19.00" routeLength="261.92" waitingTime="0.00" waitingCount="0" stopTime="0.00" timeLoss="5.38" rerouteNo="0" devices="tripinfo_flow_passenger_sw.2" vType="passenger" speedFactor="0.94" vaporized=""/>
    <tripinfo id="flow_passenger_ne.1" depart="5.00" departLane="749313693_2" departPos="0.00" departSpeed="1.59" departDelay="0.00" arrival="38.00" arrivalLane="563175146#1_0" arrivalPos="228.90" arrivalSpeed="19.23" duration="33.00" routeLength="391.64" waitingTime="0.00" waitingCount="0" stopTime="0.00" timeLoss="12.24" rerouteNo="0" devices="tripinfo_flow_passenger_ne.1" vType="passenger" speedFactor="1.04" vaporized=""/>
    <tripinfo id="flow_passenger_ne.2" depart="10.00" departLane="749313693_1" departPos="0.00" departSpeed="7.38" departDelay="0.00" arrival="40.00" arrivalLane="563175146#1_0" arrivalPos="228.90" arrivalSpeed="19.02" duration="30.00" routeLength="391.64" waitingTime="0.00" waitingCount="0" stopTime="0.00" timeLoss="9.12" rerouteNo="0" devices="tripinfo_flow_passenger_ne.2" vType="passenger" speedFactor="1.00" vaporized=""/>
    <tripinfo id="flow_passenger_ns.5" depart="15.00" departLane="749313693_2" departPos="0.00" departSpeed="5.25" departDelay="0.00" arrival="40.00" arrivalLane="757092063_3" arrivalPos="47.16" arrivalSpeed="19.91" duration="25.00" routeLength="270.37" waitingTime="0.00" waitingCount="0" stopTime="0.00" timeLoss="10.82" rerouteNo="0" devices="tripinfo_flow_passenger_ns.5" vType="passenger" speedFactor="0.94" vaporized=""/>
    <tripinfo id="flow_passenger_sn.6" depart="18.00" departLane="1053267667#3_2" departPos="0.00" departSpeed="6.36" departDelay="0.00" arrival="41.00" arrivalLane="749988360#2_1" arrivalPos="63.94" arrivalSpeed="19.63" duration="23.00" routeLength="243.11" waitingTime="0.00" waitingCount="0" stopTime="0.00" timeLoss="9.92" rerouteNo="0" devices="tripinfo_flow_passenger_sn.6" vType="passenger" speedFactor="0.97" vaporized=""/>
    <tripinfo id="flow_passenger_ns.7" depart="21.00" departLane="749313693_2" departPos="0.00" departSpeed="8.21" departDelay="0.00" arrival="41.00" arrivalLane="757092063_3" arrivalPos="47.16" arrivalSpeed="19.67" duration="20.00" routeLength="270.37" waitingTime="0.00" waitingCount="0" stopTime="0.00" timeLoss="6.46" rerouteNo="0" devices="tripinfo_flow_passenger_ns.7" vType="passenger" speedFactor="1.01" vaporized=""/>
    <tripinfo id="flow_passenger_ne.3" depart="15.00" departLane="749313693_0" departPos="0.00" departSpeed="14.22" departDelay="0.00" arrival="42.00" arrivalLane="563175146#1_0" arrivalPos="228.90" arrivalSpeed="19.95" duration="27.00" routeLength="391.64" waitingTime="0.00" waitingCount="0" stopTime="0.00" timeLoss="6.14" rerouteNo="0" devices="tripinfo_flow_passenger_ne.3" vType="passenger" speedFactor="0.99" vaporized=""/>
    <tripinfo id="flow_passenger_sw.3" depart="27.00" departLane="1053267667#3_1" departPos="0.00" departSpeed="14.19" departDelay="0.00" arrival="43.00" arrivalLane="978400303#1_0" arrivalPos="131.20" arrivalSpeed="19.49" duration="16.00" routeLength="277.25" waitingTime="0.00" waitingCount="0" stopTime="0.00" timeLoss="1.75" rerouteNo="0" devices="tripinfo_flow_passenger_sw.3" vType="passenger" speedFactor="1.09" vaporized=""/>
    <tripinfo id="flow_passenger_sn.10" depart="30.00" departLane="1053267667#3_0" departPos="7.10" departSpeed="17.01" departDelay="0.00" arrival="43.00" arrivalLane="749988360#2_0" arrivalPos="63.94" arrivalSpeed="19.66" duration="13.00" routeLength="236.01" waitingTime="0.00" waitingCount="0" stopTime="0.00" timeLoss="0.85" rerouteNo="0" devices="tripinfo_flow_passenger_sn.10" vType="passenger" speedFactor="0.89" vaporized=""/>
    <tripinfo id="flow_passenger_ne.4" depart="20.00" departLane="749313693_0" departPos="7.10" departSpeed="8.80" departDelay="0.00" arrival="44.00" arrivalLane="563175146#1_0" arrivalPos="228.90" arrivalSpeed="18.94" duration="24.00" routeLength="384.54" waitingTime="0.00" waitingCount="0" stopTime="0.00" timeLoss="3.33" rerouteNo="0" devices="tripinfo_flow_passenger_ne.4" vType="passenger" speedFactor="1.03" vaporized=""/>
    <tripinfo id="flow_bus_ns.1" depart="20.00" departLane="749313693_0" departPos="0.00" departSpeed="0.00" departDelay="0.00" arrival="45.00" arrivalLane="757092063_2" arrivalPos="47.16" arrivalSpeed="15.76" duration="25.00" routeLength="270.37" waitingTime="0.00" waitingCount="0" stopTime="0.00" timeLoss="7.16" rerouteNo="0" devices="tripinfo_flow_bus_ns.1" vType="bus" speedFactor="1.06" vaporized=""/>
    <tripinfo id="flow_passenger_ns.8" depart="24.00" departLane="749313693_2" departPos="0.00" departSpeed="11.40" departDelay="0.00" arrival="46.00" arrivalLane="757092063_3" arrivalPos="47.16" arrivalSpeed="19.89" duration="22.00" routeLength="270.37" waitingTime="0.00" waitingCount="0" stopTime="0.00" timeLoss="8.08" rerouteNo="0" devices="tripinfo_flow_passenger_ns.8" vType="passenger" speedFactor="0.98" vaporized=""/>
    <tripinfo id="flow_passenger_ns.9" depart="27.00" departLane="749313693_0" departPos="0.00" departSpeed="15.15" departDelay="0.00" arrival="46.00" arrivalLane="757092063_2" arrivalPos="47.16" arrivalSpeed="16.40" duration="19.00" routeLength="270.37" waitingTime="0.00" waitingCount="0" stopTime="0.00" timeLoss="5.15" rerouteNo="0" devices="tripinfo_flow_passenger_ns.9" vType="passenger" speedFactor="0.83" vaporized=""/>
    <tripinfo id="flow_passenger_ne.5" depart="25.00" departLane="749313693_1" departPos="7.10" departSpeed="11.97" departDelay="0.00" arrival="48.00" arrivalLane="563175146#1_0" arrivalPos="228.90" arrivalSpeed="19.92" duration="23.00" routeLength="384.54" waitingTime="0.00" waitingCount="0" stopTime="0.00" timeLoss="2.32" rerouteNo="0" devices="tripinfo_flow_passenger_ne.5" vType="passenger" speedFactor="1.02" vaporized=""/>
    <tripinfo id="flow_passenger_ns.10" depart="30.00" departLane="749313693_0" departPos="0.00" departSpeed="10.47" departDelay="0.00" arrival="49.00" arrivalLane="757092063_2" arrivalPos="47.16" arrivalSpeed="19.03" duration="19.00" routeLength="270.37" waitingTime="0.00" waitingCount="0" stopTime="0.00" timeLoss="4.75" rerouteNo="0" devices="tripinfo_flow_passenger_ns.10" vType="passenger" speedFactor="0.95" vaporized=""/>
    <tripinfo id="flow_passenger_sn.8" depart="24.00" departLane="1053267667#3_2" departPos="0.00" departSpeed="2.82" departDelay="0.00" arrival="50.00" arrivalLane="749988360#2_0" arrivalPos="63.94" arrivalSpeed="19.64" duration="26.00" routeLength="243.11" waitingTime="0.00" waitingCount="0" stopTime="0.00" timeLoss="12.94" rerouteNo="0" devices="tripinfo_flow_passenger_sn.8" vType="passenger" speedFactor="1.00" vaporized=""/>
    <tripinfo id="flow_passenger_sn.11" depart="33.00" departLane="1053267667#3_0" departPos="0.00" departSpeed="16.96" departDelay="0.00" arrival="51.00" arrivalLane="749988360#2_0" arrivalPos="63.94" arrivalSpeed="19.92" duration="18.00" routeLength="243.11" waitingTime="0.00" waitingCount="0" stopTime="0.00" timeLoss="5.47" rerouteNo="0" devices="tripinfo_flow_passenger_sn.11" vType="passenger" speedFactor="0.96" vaporized=""/>
    <tripinfo id="flow_passenger_ns.11" depart="33.00" departLane="749313693_1" departPos="0.00" departSpeed="3.77" departDelay="0.00" arrival="52.00" arrivalLane="757092063_3" arrivalPos="47.16" arrivalSpeed="19.93" duration="19.00" routeLength="270.37" waitingTime="0.00" waitingCount="0" stopTime="0.00" timeLoss="4.50" rerouteNo="0" devices="tripinfo_flow_passenger_ns.11" vType="passenger" speedFactor="1.06" vaporized=""/>
    <tripinfo id="flow_passenger_sw.4" depart="36.00" departLane="1053267667#3_1" departPos="9.60" departSpeed="0.02" departDelay="0.00" arrival="55.00" arrivalLane="978400303#1_0" arrivalPos="131.20" arrivalSpeed="19.66" duration="19.00" routeLength="267.65" waitingTime="0.00" waitingCount="0" stopTime="0.00" timeLoss="5.14" rerouteNo="0" devices="tripinfo_flow_passenger_sw.4" vType="passenger" speedFactor="1.07" vaporized=""/>
    <tripinfo id="flow_bus_ne.1" depart="25.00" departLane="749313693_1" departPos="0.00" departSpeed="0.00" departDelay="0.00" arrival="57.00" arrivalLane="563175146#1_0" arrivalPos="228.90" arrivalSpeed="15.86" duration="32.00" routeLength="391.64" waitingTime="0.00" waitingCount="0" stopTime="0.00" timeLoss="6.58" rerouteNo="0" devices="tripinfo_flow_bus_ne.1" vType="bus" speedFactor="1.01" vaporized=""/>
    <tripinfo id="flow_passenger_ns.14" depart="42.00" departLane="749313693_1" departPos="14.70" departSpeed="15.77" departDelay="0.00" arrival="58.00" arrivalLane="757092063_3" arrivalPos="47.16" arrivalSpeed="19.70" duration="16.00" routeLength="255.67" waitingTime="0.00" waitingCount="0" stopTime="0.00" timeLoss="2.34" rerouteNo="0" devices="tripinfo_flow_passenger_ns.14" vType="passenger" speedFactor="1.03" vaporized=""/>
    <tripinfo id="flow_passenger_ne.6" depart="30.00" departLane="749313693_2" departPos="0.00" departSpeed="2.99" departDelay="0.00" arrival="59.00" arrivalLane="563175146#1_0" arrivalPos="228.90" arrivalSpeed="19.74" duration="29.00" routeLength="391.64" waitingTime="0.00" waitingCount="0" stopTime="0.00" timeLoss="7.61" rerouteNo="0" devices="tripinfo_flow_passenger_ne.6" vType="passenger" speedFactor="0.97" vaporized=""/>
    <tripinfo id="flow_bus_sn.1" depart="20.00" departLane="1053267667#3_2" departPos="0.00" departSpeed="0.00" departDelay="0.00" arrival="61.00" arrivalLane="749988360#2_0" arrivalPos="63.94" arrivalSpeed="15.79" duration="41.00" routeLength="243.11" waitingTime="4.00" waitingCount="2" stopTime="0.00" timeLoss="25.69" rerouteNo="0" devices="tripinfo_flow_bus_sn.1" vType="bus" speedFactor="0.96" vaporized=""/>
    <tripinfo id="flow_passenger_ne.7" depart="35.00" departLane="749313693_1" departPos="0.00" departSpeed="7.02" departDelay="0.00" arrival="63.00" arrivalLane="563175146#1_0" arrivalPos="228.90" arrivalSpeed="18.93" duration="28.00" routeLength="391.64" waitingTime="0.00" waitingCount="0" stopTime="0.00" timeLoss="6.40" rerouteNo="0" devices="tripinfo_flow_passenger_ne.7" vType="passenger" speedFactor="0.87" vaporized=""/>
    <tripinfo id="flow_passenger_ne.8" depart="40.00" departLane="749313693_1" departPos="7.10" departSpeed="18.14" departDelay="0.00" arrival="64.00" arrivalLane="563175146#1_0" arrivalPos="228.90" arrivalSpeed="19.01" duration="24.00" routeLength="384.54" waitingTime="0.00" waitingCount="0" stopTime="0.00" timeLoss="3.71" rerouteNo="0" devices="tripinfo_flow_passenger_ne.8" vType="passenger" speedFactor="1.03" vaporized=""/>
    <tripinfo id="flow_passenger_nw.0" depart="0.00" departLane="749313693_2" departPos="79.36" departSpeed="18.45" departDelay="0.00" arrival="69.00" arrivalLane="978400303#1_3" arrivalPos="131.20" arrivalSpeed="19.18" duration="69.00" routeLength="254.66" waitingTime="46.00" waitingCount="1" stopTime="0.00" timeLoss="53.56" rerouteNo="0" devices="tripinfo_flow_passenger_nw.0" vType="passenger" speedFactor="0.83" vaporized=""/>
    <tripinfo id="flow_emergency_nw.0" depart="1.00" departLane="749313693_1" departPos="7.22" departSpeed="18.84" departDelay="1.00" arrival="70.00" arrivalLane="978400303#1_3" arrivalPos="131.20" arrivalSpeed="23.47" duration="69.00" routeLength="326.80" waitingTime="44.00" waitingCount="1" stopTime="0.00" timeLoss="54.43" rerouteNo="0" devices="tripinfo_flow_emergency_nw.0" vType="emergency" speedFactor="0.99" vaporized=""/>
    <tripinfo id="flow_passenger_se.0" depart="1.00" departLane="1053267667#3_2" departPos="0.00" departSpeed="2.70" departDelay="1.00" arrival="70.00" arrivalLane="563175146#1_2" arrivalPos="228.90" arrivalSpeed="19.36" duration="69.00" routeLength="362.68" waitingTime="39.00" waitingCount="1" stopTime="0.00" timeLoss="48.77" rerouteNo="0" devices="tripinfo_flow_passenger_se.0" vType="passenger" speedFactor="0.87" vaporized=""/>
    <tripinfo id="flow_emergency_se.0" depart="0.00" departLane="1053267667#3_0" departPos="0.00" departSpeed="10.64" departDelay="0.00" arrival="71.00" arrivalLane="563175146#1_2" arrivalPos="228.90" arrivalSpeed="22.69" duration="71.00" routeLength="362.68" waitingTime="40.00" waitingCount="2" stopTime="0.00" timeLoss="54.33" rerouteNo="0" devices="tripinfo_flow_emergency_se.0" vType="emergency" speedFactor="0.93" vaporized=""/>
    <tripinfo id="flow_emergency_ew.0" depart="0.00" departLane="749662140#0_1" departPos="7.10" departSpeed="16.88" departDelay="0.00" arrival="74.00" arrivalLane="978400303#1_0" arrivalPos="131.20" arrivalSpeed="27.96" duration="74.00" routeLength="246.76" waitingTime="57.00" waitingCount="2" stopTime="0.00" timeLoss="64.40" rerouteNo="0" devices="tripinfo_flow_emergency_ew.0" vType="emergency" speedFactor="1.03" vaporized=""/>
    <tripinfo id="flow_truck_nw.0" depart="3.00" departLane="749313693_0" departPos="19.50" departSpeed="15.77" departDelay="3.00" arrival="75.00" arrivalLane="978400303#1_3" arrivalPos="131.20" arrivalSpeed="17.14" duration="72.00" routeLength="314.52" waitingTime="40.00" waitingCount="1" stopTime="0.00" timeLoss="52.76" rerouteNo="0" devices="tripinfo_flow_truck_nw.0" vType="truck" speedFactor="0.99" vaporized=""/>
    <tripinfo id="flow_truck_se.0" depart="0.00" departLane="1053267667#3_1" departPos="21.30" departSpeed="18.00" departDelay="0.00" arrival="77.00" arrivalLane="563175146#1_2" arrivalPos="228.90" arrivalSpeed="17.46" duration="77.00" routeLength="341.38" waitingTime="37.00" waitingCount="2" stopTime="0.00" timeLoss="56.81" rerouteNo="0" devices="tripinfo_flow_truck_se.0" vType="truck" speedFactor="1.02" vaporized=""/>
    <tripinfo id="flow_passenger_ew.0" depart="0.00" departLane="749662140#0_0" departPos="0.00" departSpeed="17.16" departDelay="0.00" arrival="78.00" arrivalLane="978400303#1_0" arrivalPos="131.20" arrivalSpeed="19.45" duration="78.00" routeLength="253.86" waitingTime="55.00" waitingCount="2" stopTime="0.00" timeLoss="64.59" rerouteNo="0" devices="tripinfo_flow_passenger_ew.0" vType="passenger" speedFactor="1.01" vaporized=""/>
    <tripinfo id="flow_passenger_ew.5" depart="20.00" departLane="749662140#0_0" departPos="0.00" departSpeed="2.50" departDelay="0.00" arrival="80.00" arrivalLane="978400303#1_0" arrivalPos="131.20" arrivalSpeed="19.15" duration="60.00" routeLength="253.86" waitingTime="34.00" waitingCount="2" stopTime="0.00" timeLoss="46.57" rerouteNo="0" devices="tripinfo_flow_passenger_ew.5" vType="passenger" speedFactor="0.98" vaporized=""/>
    <tripinfo id="flow_bus_se.0" depart="0.00" departLane="1053267667#3_1" departPos="0.00" departSpeed="0.00" departDelay="0.00" arrival="81.00" arrivalLane="563175146#1_2" arrivalPos="228.90" arrivalSpeed="15.40" duration="81.00" routeLength="362.68" waitingTime="35.00" waitingCount="2" stopTime="0.00" timeLoss="56.53" rerouteNo="0" devices="tripinfo_flow_bus_se.0" vType="bus" speedFactor="0.83" vaporized=""/>
    <tripinfo id="flow_emergency_we.0" depart="0.00" departLane="885403818#0_3" departPos="7.10" departSpeed="26.01" departDelay="0.00" arrival="81.00" arrivalLane="563175146#1_1" arrivalPos="228.90" arrivalSpeed="18.57" duration="81.00" routeLength="372.10" waitingTime="53.00" waitingCount="2" stopTime="0.00" timeLoss="66.36" rerouteNo="0" devices="tripinfo_flow_emergency_we.0" vType="emergency" speedFactor="0.94" vaporized=""/>
    <tripinfo id="flow_bus_ew.0" depart="0.00" departLane="749662140#0_1" departPos="0.00" departSpeed="0.00" departDelay="0.00" arrival="83.00" arrivalLane="978400303#1_1" arrivalPos="131.20" arrivalSpeed="15.68" duration="83.00" routeLength="253.86" waitingTime="54.00" waitingCount="2" stopTime="0.00" timeLoss="66.64" rerouteNo="0" devices="tripinfo_flow_bus_ew.0" vType="bus" speedFactor="0.94" vaporized=""/>
    <tripinfo id="flow_passenger_we.2" depart="10.00" departLane="885403818#0_0" departPos="0.00" departSpeed="12.05" departDelay="0.00" arrival="83.00" arrivalLane="563175146#1_2" arrivalPos="228.90" arrivalSpeed="18.95" duration="73.00" routeLength="379.20" waitingTime="40.00" waitingCount="2" stopTime="0.00" timeLoss="53.82" rerouteNo="0" devices="tripinfo_flow_passenger_we.2" vType="passenger" speedFactor="0.90" vaporized=""/>
    <tripinfo id="flow_emergency_en.0" depart="0.00" departLane="749662140#0_3" departPos="0.00" departSpeed="18.66" departDelay="0.00" arrival="84.00" arrivalLane="749988360#2_2" arrivalPos="63.94" arrivalSpeed="30.19" duration="84.00" routeLength="198.42" waitingTime="69.00" waitingCount="1" stopTime="0.00" timeLoss="75.53" rerouteNo="0" devices="tripinfo_flow_emergency_en.0" vType="emergency" speedFactor="1.09" vaporized=""/>