<?xml version="1.0" encoding="UTF-8"?>

<!-- generated on 2025-03-23 22:39:10 by Eclipse SUMO GUI Version 1.22.0
<sumoConfiguration xmlns:xsi="http://www.w3.org/2001/XMLSchema-instance" xsi:noNamespaceSchemaLocation="http://sumo.dlr.de/xsd/sumoConfiguration.xsd">

    <input>
        <net-file value="osm.net.xml.gz"/>
        <route-files value="bsdroute.xml"/>
        <additional-files value="detectors.add.xml"/>
    </input>

    <output>
        <summary-output value="summary.xml"/>
        <tripinfo-output value="tripinfo.xml"/>
    </output>

    <processing>
        <ignore-route-errors value="true"/>
        <time-to-teleport value="-1"/>
        <tls.actuated.jam-threshold value="30"/>
    </processing>

    <routing>
        <device.rerouting.adaptation-steps value="18"/>
        <device.rerouting.adaptation-interval value="10"/>
    </routing>

    <report>
        <verbose value="true"/>
        <duration-log.statistics value="true"/>
        <no-step-log value="true"/>
    </report>

    <traci_server>
        <remote-port value="64039"/>
    </traci_server>

    <gui_only>
        <gui-settings-file value="osm.view.xml"/>
    </gui_only>

</sumoConfiguration>
-->

<tripinfos xmlns:xsi="http://www.w3.org/2001/XMLSchema-instance" xsi:noNamespaceSchemaLocation="http://sumo.dlr.de/xsd/tripinfo_file.xsd">
    <tripinfo id="veh0" depart="1.00" departLane="754598165#2_0" departPos="4.10" departSpeed="0.00" departDelay="0.00" arrival="10.00" arrivalLane="757092064#1_0" arrivalPos="18.07" arrivalSpeed="18.47" duration="9.00" routeLength="90.20" waitingTime="0.00" waitingCount="0" stopTime="0.00" timeLoss="4.47" rerouteNo="0" devices="tripinfo_veh0" vType="passenger" speedFactor="1.06" vaporized=""/>
    <tripinfo id="veh2" depart="10.00" departLane="1053267667#3_0" departPos="4.60" departSpeed="0.00" departDelay="0.00" arrival="24.00" arrivalLane="749988360#0_0" arrivalPos="10.20" arrivalSpeed="23.79" duration="14.00" routeLength="155.70" waitingTime="0.00" waitingCount="0" stopTime="0.00" timeLoss="6.86" rerouteNo="0" devices="tripinfo_veh2" vType="iot_car" speedFactor="1.01" vaporized=""/>
    <tripinfo id="veh5" depart="25.00" departLane="1053267667#3_0" departPos="4.60" departSpeed="0.00" departDelay="0.00" arrival="36.00" arrivalLane="978400303#0_0" arrivalPos="10.91" arrivalSpeed="16.54" duration="11.00" routeLength="134.58" waitingTime="0.00" waitingCount="0" stopTime="0.00" timeLoss="4.17" rerouteNo="0" devices="tripinfo_veh5" vType="iot_car" speedFactor="0.83" vaporized=""/>
    <tripinfo id="veh7" depart="35.00" departLane="749662140#0_0" departPos="4.10" departSpeed="0.00" departDelay="0.00" arrival="46.00" arrivalLane="978400303#0_1" arrivalPos="10.91" arrivalSpeed="19.69" duration="11.00" routeLength="111.68" waitingTime="0.00" waitingCount="0" stopTime="0.00" timeLoss="4.58" rerouteNo="0" devices="tripinfo_veh7" vType="passenger" speedFactor="0.89" vaporized=""/>
    <tripinfo id="veh1" depart="5.00" departLane="749662140#0_0" departPos="4.10" departSpeed="0.00" departDelay="0.00" arrival="47.00" arrivalLane="978400303#0_0" arrivalPos="10.91" arrivalSpeed="17.60" duration="42.00" routeLength="111.68" waitingTime="25.00" waitingCount="1" stopTime="0.00" timeLoss="35.69" rerouteNo="0" devices="tripinfo_veh1" vType="passenger" speedFactor="0.94" vaporized=""/>
    <tripinfo id="veh9" depart="45.00" departLane="885403818#2_0" departPos="4.10" departSpeed="0.00" departDelay="0.00" arrival="76.00" arrivalLane="563175146#1_1" arrivalPos="228.90" arrivalSpeed="19.13" duration="31.00" routeLength="296.08" waitingTime="7.00" waitingCount="1" stopTime="0.00" timeLoss="16.04" rerouteNo="0" devices="tripinfo_veh9" vType="passenger" speedFactor="0.86" vaporized=""/>
    <tripinfo id="veh3" depart="15.00" departLane="885403818#2_0" departPos="4.10" departSpeed="0.00" departDelay="0.00" arrival="77.00" arrivalLane="563175146#1_0" arrivalPos="228.90" arrivalSpeed="19.25" duration="62.00" routeLength="296.08" waitingTime="36.00" waitingCount="1" stopTime="0.00" timeLoss="46.62" rerouteNo="0" devices="tripinfo_veh3" vType="passenger" speedFactor="1.08" vaporized=""/>
    <tripinfo id="veh6" depart="93.00" departLane="754598165#2_0" departPos="4.10" departSpeed="0.00" departDelay="63.00" arrival="104.00" arrivalLane="757092064#1_0" arrivalPos="18.07" arrivalSpeed="18.91" duration="11.00" routeLength="90.20" waitingTime="0.00" waitingCount="0" stopTime="0.00" timeLoss="5.60" rerouteNo="0" devices="tripinfo_veh6" vType="passenger" speedFactor="1.05" vaporized=""/>
    <tripinfo id="veh12" depart="100.00" departLane="754598165#2_0" departPos="4.10" departSpeed="0.00" departDelay="40.00" arrival="110.00" arrivalLane="757092064#1_0" arrivalPos="18.07" arrivalSpeed="17.50" duration="10.00" routeLength="90.20" waitingTime="0.00" waitingCount="0" stopTime="0.00" timeLoss="5.40" rerouteNo="0" devices="tripinfo_veh12" vType="passenger" speedFactor="1.05" vaporized=""/>
    <tripinfo id="veh4" depart="20.00" departLane="754598165#2_0" departPos="4.10" departSpeed="0.00" departDelay="0.00" arrival="111.00" arrivalLane="563175146#1_0" arrivalPos="228.90" arrivalSpeed="19.72" duration="91.00" routeLength="271.13" waitingTime="68.00" waitingCount="1" stopTime="0.00" timeLoss="76.35" rerouteNo="0" devices="tripinfo_veh4" vType="passenger" speedFactor="1.03" vaporized=""/>
    <tripinfo id="veh10" depart="97.00" departLane="754598165#2_0" departPos="4.10" departSpeed="0.00" departDelay="47.00" arrival="116.00" arrivalLane="563175146#1_0" arrivalPos="228.90" arrivalSpeed="19.81" duration="19.00" routeLength="271.13" waitingTime="0.00" waitingCount="0" stopTime="0.00" timeLoss="4.52" rerouteNo="0" devices="tripinfo_veh10" vType="passenger" speedFactor="1.09" vaporized=""/>
    <tripinfo id="veh20" depart="100.00" departLane="1053267667#3_0" departPos="4.60" departSpeed="0.00" departDelay="0.00" arrival="118.00" arrivalLane="749988360#0_2" arrivalPos="10.20" arrivalSpeed="19.99" duration="18.00" routeLength="155.70" waitingTime="0.00" waitingCount="0" stopTime="0.00" timeLoss="11.47" rerouteNo="0" devices="tripinfo_veh20" vType="iot_car" speedFactor="1.02" vaporized=""/>
    <tripinfo id="veh8" depart="40.00" departLane="1053267667#3_0" departPos="4.60" departSpeed="0.00" departDelay="0.00" arrival="119.00" arrivalLane="749988360#0_0" arrivalPos="10.20" arrivalSpeed="20.41" duration="79.00" routeLength="155.70" waitingTime="61.00" waitingCount="1" stopTime="0.00" timeLoss="72.25" rerouteNo="0" devices="tripinfo_veh8" vType="iot_car" speedFactor="0.94" vaporized=""/>
    <tripinfo id="veh11" depart="55.00" departLane="1053267667#3_0" departPos="4.60" departSpeed="0.00" departDelay="0.00" arrival="119.00" arrivalLane="978400303#0_0" arrivalPos="10.91" arrivalSpeed="17.45" duration="64.00" routeLength="134.58" waitingTime="47.00" waitingCount="1" stopTime="0.00" timeLoss="58.16" rerouteNo="0" devices="tripinfo_veh11" vType="iot_car" speedFactor="1.03" vaporized=""/>
    <tripinfo id="veh14" depart="70.00" departLane="1053267667#3_0" departPos="4.60" departSpeed="0.00" departDelay="0.00" arrival="119.00" arrivalLane="749988360#0_1" arrivalPos="10.20" arrivalSpeed="19.88" duration="49.00" routeLength="155.70" waitingTime="29.00" waitingCount="1" stopTime="0.00" timeLoss="42.48" rerouteNo="0" devices="tripinfo_veh14" vType="iot_car" speedFactor="0.99" vaporized=""/>
    <tripinfo id="veh17" depart="85.00" departLane="1053267667#3_0" departPos="4.60" departSpeed="0.00" departDelay="0.00" arrival="121.00" arrivalLane="978400303#0_0" arrivalPos="10.91" arrivalSpeed="19.57" duration="36.00" routeLength="134.58" waitingTime="19.00" waitingCount="1" stopTime="0.00" timeLoss="29.63" rerouteNo="0" devices="tripinfo_veh17" vType="iot_car" speedFactor="0.94" vaporized=""/>
    <tripinfo id="veh23" depart="115.00" departLane="1053267667#3_0" departPos="4.60" departSpeed="0.00" departDelay="0.00" arrival="126.00" arrivalLane="978400303#0_0" arrivalPos="10.91" arrivalSpeed="17.50" duration="11.00" routeLength="134.58" waitingTime="0.00" waitingCount="0" stopTime="0.00" timeLoss="4.61" rerouteNo="0" devices="tripinfo_veh23" vType="iot_car" speedFactor="0.89" vaporized=""/>
    <tripinfo id="veh13" depart="65.00" departLane="749662140#0_0" departPos="4.10" departSpeed="0.00" departDelay="0.00" arrival="139.00" arrivalLane="978400303#0_0" arrivalPos="10.91" arrivalSpeed="16.58" duration="74.00" routeLength="111.68" waitingTime="57.00" waitingCount="1" stopTime="0.00" timeLoss="67.79" rerouteNo="0" devices="tripinfo_veh13" vType="passenger" speedFactor="1.12" vaporized=""/>
    <tripinfo id="veh19" depart="95.00" departLane="749662140#0_0" departPos="4.10" departSpeed="0.00" departDelay="0.00" arrival="139.00" arrivalLane="978400303#0_1" arrivalPos="10.91" arrivalSpeed="18.01" duration="44.00" routeLength="111.68" waitingTime="28.00" waitingCount="1" stopTime="0.00" timeLoss="37.70" rerouteNo="0" devices="tripinfo_veh19" vType="passenger" speedFactor="1.16" vaporized=""/>
    <tripinfo id="veh25" depart="125.00" departLane="749662140#0_0" departPos="4.10" departSpeed="0.00" departDelay="0.00" arrival="140.00" arrivalLane="978400303#0_0" arrivalPos="10.91" arrivalSpeed="16.45" duration="15.00" routeLength="111.68" waitingTime="0.00" waitingCount="0" stopTime="0.00" timeLoss="9.29" rerouteNo="0" devices="tripinfo_veh25" vType="passenger" speedFactor="0.87" vaporized=""/>
    <tripinfo id="veh21" depart="105.00" departLane="885403818#2_0" departPos="4.10" departSpeed="0.00" departDelay="0.00" arrival="168.00" arrivalLane="563175146#1_1" arrivalPos="228.90" arrivalSpeed="19.18" duration="63.00" routeLength="296.08" waitingTime="40.00" waitingCount="1" stopTime="0.00" timeLoss="48.10" rerouteNo="0" devices="tripinfo_veh21" vType="passenger" speedFactor="1.01" vaporized=""/>
    <tripinfo id="veh15" depart="75.00" departLane="885403818#2_0" departPos="4.10" departSpeed="0.00" departDelay="0.00" arrival="169.00" arrivalLane="563175146#1_0" arrivalPos="228.90" arrivalSpeed="19.58" duration="94.00" routeLength="296.08" waitingTime="69.00" waitingCount="1" stopTime="0.00" timeLoss="78.45" rerouteNo="0" devices="tripinfo_veh15" vType="passenger" speedFactor="0.93" vaporized=""/>
    <tripinfo id="veh27" depart="135.00" departLane="885403818#2_0" departPos="4.10" departSpeed="0.00" departDelay="0.00" arrival="170.00" arrivalLane="563175146#1_0" arrivalPos="228.90" arrivalSpeed="19.89" duration="35.00" routeLength="296.08" waitingTime="11.00" waitingCount="1" stopTime="0.00" timeLoss="19.95" rerouteNo="0" devices="tripinfo_veh27" vType="passenger" speedFactor="0.95" vaporized=""/>
    <tripinfo id="veh18" depart="185.00" departLane="754598165#2_0" departPos="4.10" departSpeed="0.00" departDelay="95.00" arrival="195.00" arrivalLane="757092064#1_0" arrivalPos="18.07" arrivalSpeed="18.84" duration="10.00" routeLength="90.20" waitingTime="0.00" waitingCount="0" stopTime="0.00" timeLoss="5.34" rerouteNo="0" devices="tripinfo_veh18" vType="passenger" speedFactor="0.94" vaporized=""/>
    <tripinfo id="veh24" depart="191.00" departLane="754598165#2_0" departPos="4.10" departSpeed="0.00" departDelay="71.00" arrival="202.00" arrivalLane="757092064#1_0" arrivalPos="18.07" arrivalSpeed="18.87" duration="11.00" routeLength="90.20" waitingTime="0.00" waitingCount="0" stopTime="0.00" timeLoss="5.85" rerouteNo="0" devices="tripinfo_veh24" vType="passenger" speedFactor="0.83" vaporized=""/>
    <tripinfo id="veh16" depart="103.00" departLane="754598165#2_0" departPos="4.10" departSpeed="0.00" departDelay="23.00" arrival="203.00" arrivalLane="563175146#1_0" arrivalPos="228.90" arrivalSpeed="19.81" duration="100.00" routeLength="271.13" waitingTime="79.00" waitingCount="1" stopTime="0.00" timeLoss="84.72" rerouteNo="0" devices="tripinfo_veh16" vType="passenger" speedFactor="0.88" vaporized=""/>
    <tripinfo id="veh22" depart="188.00" departLane="754598165#2_0" departPos="4.10" departSpeed="0.00" departDelay="78.00" arrival="208.00" arrivalLane="563175146#1_0" arrivalPos="228.90" arrivalSpeed="19.96" duration="20.00" routeLength="271.13" waitingTime="0.00" waitingCount="0" stopTime="0.00" timeLoss="4.87" rerouteNo="0" devices="tripinfo_veh22" vType="passenger" speedFactor="0.97" vaporized=""/>
    <tripinfo id="veh26" depart="130.00" departLane="1053267667#3_0" departPos="4.60" departSpeed="0.00" departDelay="0.00" arrival="211.00" arrivalLane="749988360#0_0" arrivalPos="10.20" arrivalSpeed="20.70" duration="81.00" routeLength="155.70" waitingTime="63.00" waitingCount="1" stopTime="0.00" timeLoss="74.15" rerouteNo="0" devices="tripinfo_veh26" vType="iot_car" speedFactor="0.92" vaporized=""/>
    <tripinfo id="veh29" depart="145.00" departLane="1053267667#3_0" departPos="4.60" departSpeed="0.00" departDelay="0.00" arrival="211.00" arrivalLane="978400303#0_0" arrivalPos="10.91" arrivalSpeed="17.08" duration="66.00" routeLength="134.58" waitingTime="50.00" waitingCount="1" stopTime="0.00" timeLoss="60.00" rerouteNo="0" devices="tripinfo_veh29" vType="iot_car" speedFactor="0.93" vaporized=""/>
    <tripinfo id="veh32" depart="160.00" departLane="1053267667#3_0" departPos="4.60" departSpeed="0.00" departDelay="0.00" arrival="211.00" arrivalLane="749988360#0_1" arrivalPos="10.20" arrivalSpeed="21.32" duration="51.00" routeLength="155.70" waitingTime="33.00" waitingCount="1" stopTime="0.00" timeLoss="44.15" rerouteNo="0" devices="tripinfo_veh32" vType="iot_car" speedFactor="1.01" vaporized=""/>
    <tripinfo id="veh38" depart="190.00" departLane="1053267667#3_0" departPos="4.60" departSpeed="0.00" departDelay="0.00" arrival="211.00" arrivalLane="749988360#0_2" arrivalPos="10.20" arrivalSpeed="20.02" duration="21.00" routeLength="155.70" waitingTime="1.00" waitingCount="1" stopTime="0.00" timeLoss="14.42" rerouteNo="0" devices="tripinfo_veh38" vType="iot_car" speedFactor="1.10" vaporized=""/>
    <tripinfo id="veh35" depart="175.00" departLane="1053267667#3_0" departPos="4.60" departSpeed="0.00" departDelay="0.00" arrival="213.00" arrivalLane="978400303#0_0" arrivalPos="10.91" arrivalSpeed="19.75" duration="38.00" routeLength="134.58" waitingTime="21.00" waitingCount="1" stopTime="0.00" timeLoss="31.88" rerouteNo="0" devices="tripinfo_veh35" vType="iot_car" speedFactor="1.02" vaporized=""/>
    <tripinfo id="veh28" depart="194.00" departLane="754598165#2_0" departPos="4.10" departSpeed="0.00" departDelay="54.00" arrival="214.00" arrivalLane="563175146#1_0" arrivalPos="228.90" arrivalSpeed="19.65" duration="20.00" routeLength="271.13" waitingTime="0.00" waitingCount="0" stopTime="0.00" timeLoss="5.26" rerouteNo="0" devices="tripinfo_veh28" vType="passenger" speedFactor="1.13" vaporized=""/>
    <tripinfo id="veh41" depart="205.00" departLane="1053267667#3_0" departPos="4.60" departSpeed="0.00" departDelay="0.00" arrival="216.00" arrivalLane="978400303#0_0" arrivalPos="10.91" arrivalSpeed="22.01" duration="11.00" routeLength="134.58" waitingTime="0.00" waitingCount="0" stopTime="0.00" timeLoss="4.50" rerouteNo="0" devices="tripinfo_veh41" vType="iot_car" speedFactor="0.96" vaporized=""/>
    <tripinfo id="veh37" depart="185.00" departLane="749662140#0_0" departPos="4.10" departSpeed="0.00" departDelay="0.00" arrival="230.00" arrivalLane="978400303#0_1" arrivalPos="10.91" arrivalSpeed="17.08" duration="45.00" routeLength="111.68" waitingTime="30.00" waitingCount="1" stopTime="0.00" timeLoss="39.24" rerouteNo="0" devices="tripinfo_veh37" vType="passenger" speedFactor="1.18" vaporized=""/>
    <tripinfo id="veh31" depart="155.00" departLane="749662140#0_0" departPos="4.10" departSpeed="0.00" departDelay="0.00" arrival="231.00" arrivalLane="978400303#0_0" arrivalPos="10.91" arrivalSpeed="17.37" duration="76.00" routeLength="111.68" waitingTime="59.00" waitingCount="1" stopTime="0.00" timeLoss="69.65" rerouteNo="0" devices="tripinfo_veh31" vType="passenger" speedFactor="1.15" vaporized=""/>
    <tripinfo id="veh43" depart="215.00" departLane="749662140#0_0" departPos="4.10" departSpeed="0.00" departDelay="0.00" arrival="233.00" arrivalLane="978400303#0_0" arrivalPos="10.91" arrivalSpeed="17.81" duration="18.00" routeLength="111.68" waitingTime="1.00" waitingCount="1" stopTime="0.00" timeLoss="11.89" rerouteNo="0" devices="tripinfo_veh43" vType="passenger" speedFactor="1.04" vaporized=""/>
    <tripinfo id="veh33" depart="165.00" departLane="885403818#2_0" departPos="4.10" departSpeed="0.00" departDelay="0.00" arrival="260.00" arrivalLane="563175146#1_0" arrivalPos="228.90" arrivalSpeed="18.84" duration="95.00" routeLength="296.08" waitingTime="72.00" waitingCount="1" stopTime="0.00" timeLoss="79.58" rerouteNo="0" devices="tripinfo_veh33" vType="passenger" speedFactor="1.17" vaporized=""/>
    <tripinfo id="veh39" depart="195.00" departLane="885403818#2_0" departPos="4.10" departSpeed="0.00" departDelay="0.00" arrival="261.00" arrivalLane="563175146#1_1" arrivalPos="228.90" arrivalSpeed="19.96" duration="66.00" routeLength="296.08" waitingTime="41.00" waitingCount="1" stopTime="0.00" timeLoss="50.79" rerouteNo="0" devices="tripinfo_veh39" vType="passenger" speedFactor="0.90" vaporized=""/>
    <tripinfo id="veh45" depart="225.00" departLane="885403818#2_0" departPos="4.10" departSpeed="0.00" departDelay="0.00" arrival="262.00" arrivalLane="563175146#1_0" arrivalPos="228.90" arrivalSpeed="19.41" duration="37.00" routeLength="296.08" waitingTime="13.00" waitingCount="1" stopTime="0.00" timeLoss="21.71" rerouteNo="0" devices="tripinfo_veh45" vType="passenger" speedFactor="1.09" vaporized=""/>
    <tripinfo id="veh30" depart="197.00" departLane="754598165#2_0" departPos="4.10" departSpeed="0.00" departDelay="47.00" arrival="285.00" arrivalLane="757092064#1_0" arrivalPos="18.07" arrivalSpeed="17.55" duration="88.00" routeLength="90.20" waitingTime="75.00" waitingCount="1" stopTime="0.00" timeLoss="83.25" rerouteNo="0" devices="tripinfo_veh30" vType="passenger" speedFactor="1.18" vaporized=""/>
    <tripinfo id="veh36" depart="280.00" departLane="754598165#2_0" departPos="4.10" departSpeed="0.00" departDelay="100.00" arrival="290.00" arrivalLane="757092064#1_0" arrivalPos="18.07" arrivalSpeed="18.01" duration="10.00" routeLength="90.20" waitingTime="0.00" waitingCount="0" stopTime="0.00" timeLoss="4.89" rerouteNo="0" devices="tripinfo_veh36" vType="passenger" speedFactor="0.97" vaporized=""/>
    <tripinfo id="veh42" depart="286.00" departLane="754598165#2_0" departPos="4.10" departSpeed="0.00" departDelay="76.00" arrival="295.00" arrivalLane="757092064#1_0" arrivalPos="18.07" arrivalSpeed="18.04" duration="9.00" routeLength="90.20" waitingTime="0.00" waitingCount="0" stopTime="0.00" timeLoss="4.39" rerouteNo="0" devices="tripinfo_veh42" vType="passenger" speedFactor="1.09" vaporized=""/>
    <tripinfo id="veh34" depart="277.00" departLane="754598165#2_0" departPos="4.10" departSpeed="0.00" departDelay="107.00" arrival="296.00" arrivalLane="563175146#1_0" arrivalPos="228.90" arrivalSpeed="19.70" duration="19.00" routeLength="271.13" waitingTime="0.00" waitingCount="0" stopTime="0.00" timeLoss="4.68" rerouteNo="0" devices="tripinfo_veh34" vType="passenger" speedFactor="0.99" vaporized=""/>
    <tripinfo id="veh40" depart="283.00" departLane="754598165#2_0" departPos="4.10" departSpeed="0.00" departDelay="83.00" arrival="303.00" arrivalLane="563175146#1_0" arrivalPos="228.90" arrivalSpeed="18.95" duration="20.00" routeLength="271.13" waitingTime="0.00" waitingCount="0" stopTime="0.00" timeLoss="4.86" rerouteNo="0" devices="tripinfo_veh40" vType="passenger" speedFactor="1.03" vaporized=""/>
    <tripinfo id="veh44" depart="220.00" departLane="1053267667#3_0" departPos="4.60" departSpeed="0.00" departDelay="0.00" arrival="303.00" arrivalLane="749988360#0_0" arrivalPos="10.20" arrivalSpeed="21.28" duration="83.00" routeLength="155.70" waitingTime="64.00" waitingCount="1" stopTime="0.00" timeLoss="76.17" rerouteNo="0" devices="tripinfo_veh44" vType="iot_car" speedFactor="1.04" vaporized=""/>
    <tripinfo id="veh47" depart="235.00" departLane="1053267667#3_0" departPos="4.60" departSpeed="0.00" departDelay="0.00" arrival="303.00" arrivalLane="978400303#0_0" arrivalPos="10.91" arrivalSpeed="17.03" duration="68.00" routeLength="134.58" waitingTime="53.00" waitingCount="1" stopTime="0.00" timeLoss="61.82" rerouteNo="0" devices="tripinfo_veh47" vType="iot_car" speedFactor="0.90" vaporized=""/>
    <tripinfo id="veh50" depart="250.00" departLane="1053267667#3_0" departPos="4.60" departSpeed="0.00" departDelay="0.00" arrival="303.00" arrivalLane="749988360#0_1" arrivalPos="10.20" arrivalSpeed="20.17" duration="53.00" routeLength="155.70" waitingTime="33.00" waitingCount="1" stopTime="0.00" timeLoss="46.02" rerouteNo="0" devices="tripinfo_veh50" vType="iot_car" speedFactor="0.85" vaporized=""/>
    <tripinfo id="veh49" depart="245.00" departLane="749662140#0_0" departPos="4.10" departSpeed="0.00" departDelay="0.00" arrival="324.00" arrivalLane="978400303#0_0" arrivalPos="10.91" arrivalSpeed="17.32" duration="79.00" routeLength="111.68" waitingTime="61.00" waitingCount="1" stopTime="0.00" timeLoss="72.56" rerouteNo="0" devices="tripinfo_veh49" vType="passenger" speedFactor="0.85" vaporized=""/>
    <tripinfo id="veh48" depart="369.00" departLane="754598165#2_0" departPos="4.10" departSpeed="0.00" departDelay="129.00" arrival="380.00" arrivalLane="757092064#1_0" arrivalPos="18.07" arrivalSpeed="19.61" duration="11.00" routeLength="90.20" waitingTime="0.00" waitingCount="0" stopTime="0.00" timeLoss="5.63" rerouteNo="0" devices="tripinfo_veh48" vType="passenger" speedFactor="0.88" vaporized=""/>
    <tripinfo id="veh46" depart="288.00" departLane="754598165#2_0" departPos="4.10" departSpeed="0.00" departDelay="58.00" arrival="387.00" arrivalLane="563175146#1_0" arrivalPos="228.90" arrivalSpeed="18.85" duration="99.00" routeLength="271.13" waitingTime="75.00" waitingCount="1" stopTime="0.00" timeLoss="84.35" rerouteNo="0" devices="tripinfo_veh46" vType="passenger" speedFactor="1.00" vaporized=""/>
</tripinfos>
