<?xml version="1.0" encoding="UTF-8"?>

<!-- generated on 2025-03-31 11:15:46 by Eclipse SUMO GUI Version 1.22.0
<sumoConfiguration xmlns:xsi="http://www.w3.org/2001/XMLSchema-instance" xsi:noNamespaceSchemaLocation="http://sumo.dlr.de/xsd/sumoConfiguration.xsd">

    <input>
        <net-file value="osm.net.xml.gz"/>
        <route-files value="bsdroute.rou.xml"/>
        <additional-files value="detectors.add.xml"/>
    </input>

    <output>
        <summary-output value="summary.xml"/>
        <tripinfo-output value="tripinfo.xml"/>
    </output>

    <processing>
        <ignore-route-errors value="true"/>
        <time-to-teleport value="-1"/>
        <waiting-time-memory value="1000"/>
        <tls.actuated.jam-threshold value="30"/>
    </processing>

    <routing>
        <device.rerouting.adaptation-steps value="18"/>
        <device.rerouting.adaptation-interval value="10"/>
    </routing>

    <report>
        <verbose value="true"/>
        <duration-log.statistics value="true"/>
        <no-step-log value="true"/>
    </report>

    <traci_server>
        <remote-port value="61527"/>
    </traci_server>

    <gui_only>
        <gui-settings-file value="osm.view.xml"/>
    </gui_only>

</sumoConfiguration>
-->

<tripinfos xmlns:xsi="http://www.w3.org/2001/XMLSchema-instance" xsi:noNamespaceSchemaLocation="http://sumo.dlr.de/xsd/tripinfo_file.xsd">
    <tripinfo id="flow_passenger_ns.0" depart="0.00" departLane="749313693_1" departPos="62.10" departSpeed="20.00" departDelay="0.00" arrival="12.00" arrivalLane="757092063_3" arrivalPos="47.17" arrivalSpeed="19.13" duration="12.00" routeLength="201.33" waitingTime="0.00" waitingCount="0" stopTime="0.00" timeLoss="1.19" rerouteNo="0" devices="tripinfo_flow_passenger_ns.0" vType="passenger" speedFactor="0.89" vaporized=""/>
    <tripinfo id="flow_emergency_ns.0" depart="0.00" departLane="749313693_0" departPos="7.10" departSpeed="31.19" departDelay="0.00" arrival="13.00" arrivalLane="757092063_2" arrivalPos="47.17" arrivalSpeed="22.49" duration="13.00" routeLength="256.33" waitingTime="0.00" waitingCount="0" stopTime="0.00" timeLoss="4.43" rerouteNo="0" devices="tripinfo_flow_emergency_ns.0" vType="emergency" speedFactor="1.12" vaporized=""/>
    <tripinfo id="flow_passenger_ns.1" depart="3.00" departLane="749313693_2" departPos="89.02" departSpeed="14.74" departDelay="0.00" arrival="13.00" arrivalLane="757092063_4" arrivalPos="47.17" arrivalSpeed="19.98" duration="10.00" routeLength="174.41" waitingTime="0.00" waitingCount="0" stopTime="0.00" timeLoss="1.27" rerouteNo="0" devices="tripinfo_flow_passenger_ns.1" vType="passenger" speedFactor="1.03" vaporized=""/>
    <tripinfo id="flow_passenger_nw.0" depart="0.00" departLane="749313693_2" departPos="72.43" departSpeed="20.00" departDelay="0.00" arrival="18.00" arrivalLane="978400303#1_3" arrivalPos="131.20" arrivalSpeed="19.63" duration="18.00" routeLength="254.66" waitingTime="0.00" waitingCount="0" stopTime="0.00" timeLoss="2.40" rerouteNo="0" devices="tripinfo_flow_passenger_nw.0" vType="passenger" speedFactor="0.83" vaporized=""/>
    <tripinfo id="flow_emergency_ne.0" depart="0.00" departLane="749313693_2" departPos="14.20" departSpeed="21.03" departDelay="0.00" arrival="19.00" arrivalLane="563175146#1_0" arrivalPos="228.90" arrivalSpeed="28.50" duration="19.00" routeLength="370.51" waitingTime="0.00" waitingCount="0" stopTime="0.00" timeLoss="4.33" rerouteNo="0" devices="tripinfo_flow_emergency_ne.0" vType="emergency" speedFactor="1.05" vaporized=""/>
    <tripinfo id="flow_emergency_nw.0" depart="1.00" departLane="749313693_1" departPos="7.23" departSpeed="19.15" departDelay="1.00" arrival="19.00" arrivalLane="978400303#1_3" arrivalPos="131.20" arrivalSpeed="24.18" duration="18.00" routeLength="319.86" waitingTime="0.00" waitingCount="0" stopTime="0.00" timeLoss="4.17" rerouteNo="0" devices="tripinfo_flow_emergency_nw.0" vType="emergency" speedFactor="0.99" vaporized=""/>
    <tripinfo id="flow_bus_ns.0" depart="0.00" departLane="749313693_0" departPos="0.00" departSpeed="0.00" departDelay="0.00" arrival="23.00" arrivalLane="757092063_2" arrivalPos="47.17" arrivalSpeed="15.89" duration="23.00" routeLength="263.43" waitingTime="0.00" waitingCount="0" stopTime="0.00" timeLoss="5.98" rerouteNo="0" devices="tripinfo_flow_bus_ns.0" vType="bus" speedFactor="1.08" vaporized=""/>
    <tripinfo id="flow_passenger_ne.0" depart="0.00" departLane="749313693_1" departPos="0.00" departSpeed="20.00" departDelay="0.00" arrival="24.00" arrivalLane="563175146#1_0" arrivalPos="228.90" arrivalSpeed="19.23" duration="24.00" routeLength="384.71" waitingTime="0.00" waitingCount="0" stopTime="0.00" timeLoss="3.53" rerouteNo="0" devices="tripinfo_flow_passenger_ne.0" vType="passenger" speedFactor="0.97" vaporized=""/>
    <tripinfo id="flow_truck_nw.0" depart="3.00" departLane="749313693_0" departPos="18.35" departSpeed="14.61" departDelay="3.00" arrival="24.00" arrivalLane="978400303#1_3" arrivalPos="131.20" arrivalSpeed="17.98" duration="21.00" routeLength="308.74" waitingTime="0.00" waitingCount="0" stopTime="0.00" timeLoss="2.04" rerouteNo="0" devices="tripinfo_flow_truck_nw.0" vType="truck" speedFactor="0.99" vaporized=""/>
    <tripinfo id="flow_passenger_ns.2" depart="6.00" departLane="749313693_2" departPos="0.00" departSpeed="5.12" departDelay="0.00" arrival="26.00" arrivalLane="757092063_4" arrivalPos="47.17" arrivalSpeed="19.60" duration="20.00" routeLength="263.43" waitingTime="0.00" waitingCount="0" stopTime="0.00" timeLoss="6.66" rerouteNo="0" devices="tripinfo_flow_passenger_ns.2" vType="passenger" speedFactor="1.00" vaporized=""/>
    <tripinfo id="flow_truck_ns.0" depart="3.00" departLane="749313693_0" departPos="0.00" departSpeed="0.48" departDelay="3.00" arrival="28.00" arrivalLane="757092063_2" arrivalPos="47.17" arrivalSpeed="17.60" duration="25.00" routeLength="263.43" waitingTime="0.00" waitingCount="0" stopTime="0.00" timeLoss="10.26" rerouteNo="0" devices="tripinfo_flow_truck_ns.0" vType="truck" speedFactor="1.17" vaporized=""/>
    <tripinfo id="flow_passenger_ns.3" depart="9.00" departLane="749313693_2" departPos="0.00" departSpeed="2.80" departDelay="0.00" arrival="28.00" arrivalLane="757092063_4" arrivalPos="47.17" arrivalSpeed="19.43" duration="19.00" routeLength="263.43" waitingTime="0.00" waitingCount="0" stopTime="0.00" timeLoss="5.28" rerouteNo="0" devices="tripinfo_flow_passenger_ns.3" vType="passenger" speedFactor="1.02" vaporized=""/>
    <tripinfo id="flow_passenger_ns.4" depart="12.00" departLane="749313693_1" departPos="0.00" departSpeed="13.03" departDelay="0.00" arrival="28.00" arrivalLane="757092063_3" arrivalPos="47.17" arrivalSpeed="19.39" duration="16.00" routeLength="263.43" waitingTime="0.00" waitingCount="0" stopTime="0.00" timeLoss="1.94" rerouteNo="0" devices="tripinfo_flow_passenger_ns.4" vType="passenger" speedFactor="0.97" vaporized=""/>
    <tripinfo id="flow_bus_nw.0" depart="0.00" departLane="749313693_2" departPos="7.10" departSpeed="0.00" departDelay="0.00" arrival="29.00" arrivalLane="978400303#1_3" arrivalPos="131.20" arrivalSpeed="15.13" duration="29.00" routeLength="319.99" waitingTime="0.00" waitingCount="0" stopTime="0.00" timeLoss="7.53" rerouteNo="0" devices="tripinfo_flow_bus_nw.0" vType="bus" speedFactor="1.03" vaporized=""/>
    <tripinfo id="flow_passenger_nw.1" depart="7.00" departLane="749313693_2" departPos="20.96" departSpeed="7.96" departDelay="0.00" arrival="30.00" arrivalLane="978400303#1_3" arrivalPos="131.20" arrivalSpeed="18.92" duration="23.00" routeLength="306.13" waitingTime="0.00" waitingCount="0" stopTime="0.00" timeLoss="5.50" rerouteNo="0" devices="tripinfo_flow_passenger_nw.1" vType="passenger" speedFactor="0.88" vaporized=""/>
    <tripinfo id="flow_passenger_ns.5" depart="15.00" departLane="749313693_1" departPos="0.00" departSpeed="15.67" departDelay="0.00" arrival="31.00" arrivalLane="757092063_3" arrivalPos="47.17" arrivalSpeed="19.74" duration="16.00" routeLength="263.43" waitingTime="0.00" waitingCount="0" stopTime="0.00" timeLoss="1.94" rerouteNo="0" devices="tripinfo_flow_passenger_ns.5" vType="passenger" speedFactor="0.94" vaporized=""/>
    <tripinfo id="flow_passenger_ns.6" depart="18.00" departLane="749313693_1" departPos="0.00" departSpeed="15.42" departDelay="0.00" arrival="32.00" arrivalLane="757092063_3" arrivalPos="47.17" arrivalSpeed="18.75" duration="14.00" routeLength="263.43" waitingTime="0.00" waitingCount="0" stopTime="0.00" timeLoss="0.66" rerouteNo="0" devices="tripinfo_flow_passenger_ns.6" vType="passenger" speedFactor="1.02" vaporized=""/>
    <tripinfo id="flow_bus_ne.0" depart="0.00" departLane="749313693_2" departPos="0.00" departSpeed="0.00" departDelay="0.00" arrival="34.00" arrivalLane="563175146#1_0" arrivalPos="228.90" arrivalSpeed="15.89" duration="34.00" routeLength="384.71" waitingTime="1.00" waitingCount="1" stopTime="0.00" timeLoss="8.96" rerouteNo="0" devices="tripinfo_flow_bus_ne.0" vType="bus" speedFactor="1.01" vaporized=""/>
    <tripinfo id="flow_passenger_ne.2" depart="10.00" departLane="749313693_2" departPos="28.06" departSpeed="9.37" departDelay="0.00" arrival="35.00" arrivalLane="563175146#1_0" arrivalPos="228.90" arrivalSpeed="17.37" duration="25.00" routeLength="356.65" waitingTime="0.00" waitingCount="0" stopTime="0.00" timeLoss="6.19" rerouteNo="0" devices="tripinfo_flow_passenger_ne.2" vType="passenger" speedFactor="1.00" vaporized=""/>
    <tripinfo id="flow_passenger_nw.2" depart="14.00" departLane="749313693_2" departPos="0.00" departSpeed="14.22" departDelay="0.00" arrival="35.00" arrivalLane="978400303#1_3" arrivalPos="131.20" arrivalSpeed="19.81" duration="21.00" routeLength="327.09" waitingTime="0.00" waitingCount="0" stopTime="0.00" timeLoss="2.69" rerouteNo="0" devices="tripinfo_flow_passenger_nw.2" vType="passenger" speedFactor="1.12" vaporized=""/>
    <tripinfo id="flow_passenger_ns.7" depart="21.00" departLane="749313693_2" departPos="9.83" departSpeed="20.00" departDelay="0.00" arrival="35.00" arrivalLane="757092063_4" arrivalPos="47.17" arrivalSpeed="19.65" duration="14.00" routeLength="253.60" waitingTime="0.00" waitingCount="0" stopTime="0.00" timeLoss="0.49" rerouteNo="0" devices="tripinfo_flow_passenger_ns.7" vType="passenger" speedFactor="1.01" vaporized=""/>
    <tripinfo id="flow_truck_ne.0" depart="1.00" departLane="749313693_2" departPos="0.00" departSpeed="1.78" departDelay="1.00" arrival="38.00" arrivalLane="563175146#1_0" arrivalPos="228.90" arrivalSpeed="16.90" duration="37.00" routeLength="384.71" waitingTime="0.00" waitingCount="0" stopTime="0.00" timeLoss="14.58" rerouteNo="0" devices="tripinfo_flow_truck_ne.0" vType="truck" speedFactor="1.01" vaporized=""/>
    <tripinfo id="flow_passenger_ne.1" depart="5.00" departLane="749313693_2" departPos="0.00" departSpeed="3.24" departDelay="0.00" arrival="39.00" arrivalLane="563175146#1_0" arrivalPos="228.90" arrivalSpeed="19.07" duration="34.00" routeLength="384.71" waitingTime="1.00" waitingCount="1" stopTime="0.00" timeLoss="13.79" rerouteNo="0" devices="tripinfo_flow_passenger_ne.1" vType="passenger" speedFactor="1.04" vaporized=""/>
    <tripinfo id="flow_passenger_ns.8" depart="24.00" departLane="749313693_1" departPos="0.00" departSpeed="20.00" departDelay="0.00" arrival="39.00" arrivalLane="757092063_3" arrivalPos="47.17" arrivalSpeed="19.20" duration="15.00" routeLength="263.43" waitingTime="0.00" waitingCount="0" stopTime="0.00" timeLoss="0.94" rerouteNo="0" devices="tripinfo_flow_passenger_ns.8" vType="passenger" speedFactor="0.98" vaporized=""/>
    <tripinfo id="flow_passenger_ns.9" depart="27.00" departLane="749313693_0" departPos="38.94" departSpeed="20.00" departDelay="0.00" arrival="39.00" arrivalLane="757092063_2" arrivalPos="47.17" arrivalSpeed="19.69" duration="12.00" routeLength="224.49" waitingTime="0.00" waitingCount="0" stopTime="0.00" timeLoss="0.70" rerouteNo="0" devices="tripinfo_flow_passenger_ns.9" vType="passenger" speedFactor="0.83" vaporized=""/>
    <tripinfo id="flow_passenger_ne.3" depart="15.00" departLane="749313693_2" departPos="0.00" departSpeed="10.91" departDelay="0.00" arrival="41.00" arrivalLane="563175146#1_0" arrivalPos="228.90" arrivalSpeed="18.79" duration="26.00" routeLength="384.71" waitingTime="0.00" waitingCount="0" stopTime="0.00" timeLoss="5.31" rerouteNo="0" devices="tripinfo_flow_passenger_ne.3" vType="passenger" speedFactor="0.99" vaporized=""/>
    <tripinfo id="flow_passenger_nw.3" depart="21.00" departLane="749313693_0" departPos="0.00" departSpeed="11.04" departDelay="0.00" arrival="42.00" arrivalLane="978400303#1_3" arrivalPos="131.20" arrivalSpeed="19.17" duration="21.00" routeLength="327.09" waitingTime="0.00" waitingCount="0" stopTime="0.00" timeLoss="2.74" rerouteNo="0" devices="tripinfo_flow_passenger_nw.3" vType="passenger" speedFactor="1.09" vaporized=""/>
    <tripinfo id="flow_bus_ns.1" depart="20.00" departLane="749313693_2" departPos="0.00" departSpeed="0.00" departDelay="0.00" arrival="43.00" arrivalLane="757092063_4" arrivalPos="47.17" arrivalSpeed="15.37" duration="23.00" routeLength="263.43" waitingTime="0.00" waitingCount="0" stopTime="0.00" timeLoss="6.34" rerouteNo="0" devices="tripinfo_flow_bus_ns.1" vType="bus" speedFactor="1.06" vaporized=""/>
    <tripinfo id="flow_passenger_ne.4" depart="20.00" departLane="749313693_0" departPos="0.00" departSpeed="11.39" departDelay="0.00" arrival="43.00" arrivalLane="563175146#1_0" arrivalPos="228.90" arrivalSpeed="19.38" duration="23.00" routeLength="384.71" waitingTime="0.00" waitingCount="0" stopTime="0.00" timeLoss="2.33" rerouteNo="0" devices="tripinfo_flow_passenger_ne.4" vType="passenger" speedFactor="1.03" vaporized=""/>
    <tripinfo id="flow_passenger_ns.10" depart="30.00" departLane="749313693_0" departPos="0.00" departSpeed="8.56" departDelay="0.00" arrival="46.00" arrivalLane="757092063_3" arrivalPos="47.17" arrivalSpeed="19.95" duration="16.00" routeLength="263.43" waitingTime="0.00" waitingCount="0" stopTime="0.00" timeLoss="2.83" rerouteNo="0" devices="tripinfo_flow_passenger_ns.10" vType="passenger" speedFactor="0.95" vaporized=""/>
    <tripinfo id="flow_passenger_nw.4" depart="28.00" departLane="749313693_2" departPos="0.00" departSpeed="10.83" departDelay="0.00" arrival="49.00" arrivalLane="978400303#1_3" arrivalPos="131.20" arrivalSpeed="18.90" duration="21.00" routeLength="327.09" waitingTime="0.00" waitingCount="0" stopTime="0.00" timeLoss="2.49" rerouteNo="0" devices="tripinfo_flow_passenger_nw.4" vType="passenger" speedFactor="0.91" vaporized=""/>
    <tripinfo id="flow_passenger_ne.5" depart="25.00" departLane="749313693_2" departPos="0.00" departSpeed="8.01" departDelay="0.00" arrival="50.00" arrivalLane="563175146#1_0" arrivalPos="228.90" arrivalSpeed="18.95" duration="25.00" routeLength="384.71" waitingTime="0.00" waitingCount="0" stopTime="0.00" timeLoss="3.96" rerouteNo="0" devices="tripinfo_flow_passenger_ne.5" vType="passenger" speedFactor="1.02" vaporized=""/>
    <tripinfo id="flow_passenger_nw.5" depart="35.00" departLane="749313693_2" departPos="38.34" departSpeed="20.00" departDelay="0.00" arrival="52.00" arrivalLane="978400303#1_3" arrivalPos="131.20" arrivalSpeed="19.31" duration="17.00" routeLength="288.75" waitingTime="0.00" waitingCount="0" stopTime="0.00" timeLoss="1.14" rerouteNo="0" devices="tripinfo_flow_passenger_nw.5" vType="passenger" speedFactor="1.10" vaporized=""/>
    <tripinfo id="flow_passenger_ne.6" depart="30.00" departLane="749313693_1" departPos="0.00" departSpeed="20.00" departDelay="0.00" arrival="53.00" arrivalLane="563175146#1_0" arrivalPos="228.90" arrivalSpeed="18.85" duration="23.00" routeLength="384.71" waitingTime="0.00" waitingCount="0" stopTime="0.00" timeLoss="2.09" rerouteNo="0" devices="tripinfo_flow_passenger_ne.6" vType="passenger" speedFactor="0.97" vaporized=""/>
    <tripinfo id="flow_passenger_ns.11" depart="33.00" departLane="749313693_2" departPos="0.00" departSpeed="1.58" departDelay="0.00" arrival="53.00" arrivalLane="757092063_4" arrivalPos="47.17" arrivalSpeed="19.62" duration="20.00" routeLength="263.43" waitingTime="0.00" waitingCount="0" stopTime="0.00" timeLoss="6.49" rerouteNo="0" devices="tripinfo_flow_passenger_ns.11" vType="passenger" speedFactor="1.06" vaporized=""/>
    <tripinfo id="flow_passenger_ns.12" depart="36.00" departLane="749313693_2" departPos="0.00" departSpeed="1.17" departDelay="0.00" arrival="55.00" arrivalLane="757092063_4" arrivalPos="47.17" arrivalSpeed="19.64" duration="19.00" routeLength="263.43" waitingTime="0.00" waitingCount="0" stopTime="0.00" timeLoss="5.11" rerouteNo="0" devices="tripinfo_flow_passenger_ns.12" vType="passenger" speedFactor="1.00" vaporized=""/>
    <tripinfo id="flow_bus_ne.1" depart="25.00" departLane="749313693_0" departPos="0.00" departSpeed="0.00" departDelay="0.00" arrival="58.00" arrivalLane="563175146#1_0" arrivalPos="228.90" arrivalSpeed="16.00" duration="33.00" routeLength="384.71" waitingTime="0.00" waitingCount="0" stopTime="0.00" timeLoss="7.53" rerouteNo="0" devices="tripinfo_flow_bus_ne.1" vType="bus" speedFactor="1.01" vaporized=""/>
    <tripinfo id="flow_bus_nw.1" depart="30.00" departLane="749313693_2" departPos="0.00" departSpeed="0.00" departDelay="0.00" arrival="58.00" arrivalLane="978400303#1_3" arrivalPos="131.20" arrivalSpeed="15.69" duration="28.00" routeLength="327.09" waitingTime="0.00" waitingCount="0" stopTime="0.00" timeLoss="6.44" rerouteNo="0" devices="tripinfo_flow_bus_nw.1" vType="bus" speedFactor="1.10" vaporized=""/>
    <tripinfo id="flow_bus_ns.2" depart="40.00" departLane="749313693_1" departPos="74.75" departSpeed="0.00" departDelay="0.00" arrival="58.00" arrivalLane="757092063_3" arrivalPos="47.17" arrivalSpeed="15.35" duration="18.00" routeLength="188.68" waitingTime="0.00" waitingCount="0" stopTime="0.00" timeLoss="5.86" rerouteNo="0" devices="tripinfo_flow_bus_ns.2" vType="bus" speedFactor="1.03" vaporized=""/>
    <tripinfo id="flow_passenger_ne.7" depart="35.00" departLane="749313693_1" departPos="0.00" departSpeed="15.35" departDelay="0.00" arrival="59.00" arrivalLane="563175146#1_0" arrivalPos="228.90" arrivalSpeed="18.31" duration="24.00" routeLength="384.71" waitingTime="0.00" waitingCount="0" stopTime="0.00" timeLoss="2.97" rerouteNo="0" devices="tripinfo_flow_passenger_ne.7" vType="passenger" speedFactor="0.87" vaporized=""/>
    <tripinfo id="flow_passenger_ns.13" depart="39.00" departLane="749313693_1" departPos="0.00" departSpeed="20.00" departDelay="0.00" arrival="60.00" arrivalLane="757092063_3" arrivalPos="47.17" arrivalSpeed="17.71" duration="21.00" routeLength="263.43" waitingTime="0.00" waitingCount="0" stopTime="0.00" timeLoss="7.12" rerouteNo="0" devices="tripinfo_flow_passenger_ns.13" vType="passenger" speedFactor="0.94" vaporized=""/>
    <tripinfo id="flow_passenger_nw.6" depart="42.00" departLane="749313693_1" departPos="11.33" departSpeed="15.03" departDelay="0.00" arrival="61.00" arrivalLane="978400303#1_3" arrivalPos="131.20" arrivalSpeed="19.43" duration="19.00" routeLength="315.76" waitingTime="0.00" waitingCount="0" stopTime="0.00" timeLoss="1.84" rerouteNo="0" devices="tripinfo_flow_passenger_nw.6" vType="passenger" speedFactor="1.07" vaporized=""/>
    <tripinfo id="flow_passenger_ne.8" depart="40.00" departLane="749313693_2" departPos="0.00" departSpeed="9.36" departDelay="0.00" arrival="65.00" arrivalLane="563175146#1_0" arrivalPos="228.90" arrivalSpeed="19.42" duration="25.00" routeLength="384.71" waitingTime="0.00" waitingCount="0" stopTime="0.00" timeLoss="4.38" rerouteNo="0" devices="tripinfo_flow_passenger_ne.8" vType="passenger" speedFactor="1.03" vaporized=""/>
    <tripinfo id="flow_passenger_sn.13" depart="57.00" departLane="1053267667#3_2" departPos="81.47" departSpeed="20.00" departDelay="18.00" arrival="66.00" arrivalLane="749988360#2_2" arrivalPos="63.94" arrivalSpeed="19.25" duration="9.00" routeLength="161.66" waitingTime="0.00" waitingCount="0" stopTime="0.00" timeLoss="0.28" rerouteNo="0" devices="tripinfo_flow_passenger_sn.13" vType="passenger" speedFactor="1.10" vaporized=""/>
    <tripinfo id="flow_emergency_sw.0" depart="0.00" departLane="1053267667#3_0" departPos="22.88" departSpeed="22.73" departDelay="0.00" arrival="67.00" arrivalLane="978400303#1_0" arrivalPos="131.20" arrivalSpeed="25.71" duration="67.00" routeLength="254.38" waitingTime="50.00" waitingCount="1" stopTime="0.00" timeLoss="55.91" rerouteNo="0" devices="tripinfo_flow_emergency_sw.0" vType="emergency" speedFactor="0.94" vaporized=""/>
    <tripinfo id="flow_passenger_sn.15" depart="63.00" departLane="1053267667#3_1" departPos="76.62" departSpeed="20.00" departDelay="18.00" arrival="72.00" arrivalLane="749988360#2_1" arrivalPos="63.94" arrivalSpeed="19.99" duration="9.00" routeLength="166.51" waitingTime="0.00" waitingCount="0" stopTime="0.00" timeLoss="0.61" rerouteNo="0" devices="tripinfo_flow_passenger_sn.15" vType="passenger" speedFactor="1.00" vaporized=""/>
    <tripinfo id="flow_truck_sw.0" depart="0.00" departLane="1053267667#3_2" departPos="81.21" departSpeed="0.00" departDelay="0.00" arrival="75.00" arrivalLane="978400303#1_0" arrivalPos="131.20" arrivalSpeed="17.01" duration="75.00" routeLength="196.05" waitingTime="55.00" waitingCount="1" stopTime="0.00" timeLoss="63.31" rerouteNo="0" devices="tripinfo_flow_truck_sw.0" vType="truck" speedFactor="1.18" vaporized=""/>
    <tripinfo id="flow_bus_sn.2" depart="58.00" departLane="1053267667#3_2" departPos="81.47" departSpeed="0.00" departDelay="18.00" arrival="75.00" arrivalLane="749988360#2_2" arrivalPos="63.94" arrivalSpeed="15.50" duration="17.00" routeLength="161.66" waitingTime="0.00" waitingCount="0" stopTime="0.00" timeLoss="6.38" rerouteNo="0" devices="tripinfo_flow_bus_sn.2" vType="bus" speedFactor="1.02" vaporized=""/>
    <tripinfo id="flow_passenger_sn.14" depart="61.00" departLane="1053267667#3_2" departPos="81.47" departSpeed="1.44" departDelay="19.00" arrival="76.00" arrivalLane="749988360#2_2" arrivalPos="63.94" arrivalSpeed="17.39" duration="15.00" routeLength="161.66" waitingTime="0.00" waitingCount="0" stopTime="0.00" timeLoss="6.88" rerouteNo="0" devices="tripinfo_flow_passenger_sn.14" vType="passenger" speedFactor="1.04" vaporized=""/>
    <tripinfo id="flow_passenger_sw.4" depart="36.00" departLane="1053267667#3_2" departPos="81.47" departSpeed="0.00" departDelay="0.00" arrival="77.00" arrivalLane="978400303#1_0" arrivalPos="131.20" arrivalSpeed="18.94" duration="41.00" routeLength="195.79" waitingTime="25.00" waitingCount="1" stopTime="0.00" timeLoss="30.29" rerouteNo="0" devices="tripinfo_flow_passenger_sw.4" vType="passenger" speedFactor="1.07" vaporized=""/>
    <tripinfo id="flow_passenger_sn.17" depart="64.00" departLane="1053267667#3_2" departPos="74.47" departSpeed="8.26" departDelay="13.00" arrival="78.00" arrivalLane="749988360#2_2" arrivalPos="63.94" arrivalSpeed="18.71" duration="14.00" routeLength="168.66" waitingTime="0.00" waitingCount="0" stopTime="0.00" timeLoss="5.12" rerouteNo="0" devices="tripinfo_flow_passenger_sn.17" vType="passenger" speedFactor="0.93" vaporized=""/>
    <tripinfo id="flow_emergency_sn.0" depart="0.00" departLane="1053267667#3_2" departPos="0.00" departSpeed="24.40" departDelay="0.00" arrival="79.00" arrivalLane="749988360#2_2" arrivalPos="63.94" arrivalSpeed="20.54" duration="79.00" routeLength="243.13" waitingTime="58.00" waitingCount="1" stopTime="0.00" timeLoss="68.92" rerouteNo="0" devices="tripinfo_flow_emergency_sn.0" vType="emergency" speedFactor="0.88" vaporized=""/>
    <tripinfo id="flow_passenger_sn.0" depart="2.00" departLane="1053267667#3_1" departPos="27.55" departSpeed="13.14" departDelay="2.00" arrival="80.00" arrivalLane="749988360#2_0" arrivalPos="63.94" arrivalSpeed="19.78" duration="78.00" routeLength="215.58" waitingTime="52.00" waitingCount="2" stopTime="0.00" timeLoss="66.33" rerouteNo="0" devices="tripinfo_flow_passenger_sn.0" vType="passenger" speedFactor="0.92" vaporized=""/>
    <tripinfo id="flow_bus_sw.1" depart="60.00" departLane="1053267667#3_2" departPos="81.47" departSpeed="0.00" departDelay="20.00" arrival="82.00" arrivalLane="978400303#1_0" arrivalPos="131.20" arrivalSpeed="15.81" duration="22.00" routeLength="195.79" waitingTime="3.00" waitingCount="1" stopTime="0.00" timeLoss="8.81" rerouteNo="0" devices="tripinfo_flow_bus_sw.1" vType="bus" speedFactor="1.06" vaporized=""/>
    <tripinfo id="flow_passenger_sw.0" depart="0.00" departLane="1053267667#3_2" departPos="74.11" departSpeed="0.00" departDelay="0.00" arrival="84.00" arrivalLane="978400303#1_0" arrivalPos="131.20" arrivalSpeed="18.75" duration="84.00" routeLength="203.15" waitingTime="65.00" waitingCount="4" stopTime="0.00" timeLoss="73.35" rerouteNo="0" devices="tripinfo_flow_passenger_sw.0" vType="passenger" speedFactor="0.95" vaporized=""/>
    <tripinfo id="flow_passenger_sn.1" depart="3.00" departLane="1053267667#3_2" departPos="18.63" departSpeed="13.58" departDelay="0.00" arrival="85.00" arrivalLane="749988360#2_2" arrivalPos="63.94" arrivalSpeed="19.33" duration="82.00" routeLength="224.50" waitingTime="59.00" waitingCount="2" stopTime="0.00" timeLoss="70.27" rerouteNo="0" devices="tripinfo_flow_passenger_sn.1" vType="passenger" speedFactor="0.96" vaporized=""/>
    <tripinfo id="flow_passenger_sn.16" depart="76.00" departLane="1053267667#3_1" departPos="74.67" departSpeed="20.00" departDelay="28.00" arrival="86.00" arrivalLane="749988360#2_1" arrivalPos="63.94" arrivalSpeed="18.93" duration="10.00" routeLength="168.46" waitingTime="0.00" waitingCount="0" stopTime="0.00" timeLoss="0.92" rerouteNo="0" devices="tripinfo_flow_passenger_sn.16" vType="passenger" speedFactor="0.73" vaporized=""/>
    <tripinfo id="flow_passenger_sn.19" depart="77.00" departLane="1053267667#3_1" departPos="79.79" departSpeed="16.83" departDelay="20.00" arrival="87.00" arrivalLane="749988360#2_1" arrivalPos="63.94" arrivalSpeed="19.49" duration="10.00" routeLength="163.34" waitingTime="0.00" waitingCount="0" stopTime="0.00" timeLoss="1.62" rerouteNo="0" devices="tripinfo_flow_passenger_sn.19" vType="passenger" speedFactor="1.03" vaporized=""/>
    <tripinfo id="flow_truck_se.0" depart="0.00" departLane="1053267667#3_1" departPos="21.30" departSpeed="18.00" departDelay="0.00" arrival="89.00" arrivalLane="563175146#1_2" arrivalPos="228.90" arrivalSpeed="17.05" duration="89.00" routeLength="341.39" waitingTime="60.00" waitingCount="2" stopTime="0.00" timeLoss="68.71" rerouteNo="0" devices="tripinfo_flow_truck_se.0" vType="truck" speedFactor="1.02" vaporized=""/>
    <tripinfo id="flow_bus_sw.0" depart="0.00" departLane="1053267667#3_1" departPos="14.20" departSpeed="0.00" departDelay="0.00" arrival="90.00" arrivalLane="978400303#1_0" arrivalPos="131.20" arrivalSpeed="14.99" duration="90.00" routeLength="263.06" waitingTime="47.00" waitingCount="2" stopTime="0.00" timeLoss="72.89" rerouteNo="0" devices="tripinfo_flow_bus_sw.0" vType="bus" speedFactor="0.89" vaporized=""/>
    <tripinfo id="flow_passenger_se.7" depart="67.00" departLane="1053267667#3_1" departPos="70.04" departSpeed="1.10" departDelay="18.00" arrival="90.00" arrivalLane="563175146#1_2" arrivalPos="228.90" arrivalSpeed="19.37" duration="23.00" routeLength="292.65" waitingTime="1.00" waitingCount="1" stopTime="0.00" timeLoss="7.23" rerouteNo="0" devices="tripinfo_flow_passenger_se.7" vType="passenger" speedFactor="1.00" vaporized=""/>
    <tripinfo id="flow_passenger_sw.5" depart="70.00" departLane="1053267667#3_1" departPos="75.08" departSpeed="5.48" departDelay="25.00" arrival="91.00" arrivalLane="978400303#1_0" arrivalPos="131.20" arrivalSpeed="19.05" duration="21.00" routeLength="202.18" waitingTime="1.00" waitingCount="1" stopTime="0.00" timeLoss="10.83" rerouteNo="0" devices="tripinfo_flow_passenger_sw.5" vType="passenger" speedFactor="0.95" vaporized=""/>
    <tripinfo id="flow_truck_sn.0" depart="2.00" departLane="1053267667#3_0" departPos="0.00" departSpeed="10.33" departDelay="2.00" arrival="92.00" arrivalLane="749988360#2_1" arrivalPos="63.94" arrivalSpeed="16.71" duration="90.00" routeLength="243.13" waitingTime="52.00" waitingCount="1" stopTime="0.00" timeLoss="75.78" rerouteNo="0" devices="tripinfo_flow_truck_sn.0" vType="truck" speedFactor="0.97" vaporized=""/>
    <tripinfo id="flow_passenger_sn.3" depart="9.00" departLane="1053267667#3_0" departPos="0.00" departSpeed="2.50" departDelay="0.00" arrival="92.00" arrivalLane="749988360#2_0" arrivalPos="63.94" arrivalSpeed="17.04" duration="83.00" routeLength="243.13" waitingTime="46.00" waitingCount="3" stopTime="0.00" timeLoss="70.36" rerouteNo="0" devices="tripinfo_flow_passenger_sn.3" vType="passenger" speedFactor="1.10" vaporized=""/>
    <tripinfo id="flow_passenger_sn.2" depart="6.00" departLane="1053267667#3_1" departPos="0.00" departSpeed="2.50" departDelay="0.00" arrival="93.00" arrivalLane="749988360#2_1" arrivalPos="63.94" arrivalSpeed="18.51" duration="87.00" routeLength="243.13" waitingTime="52.00" waitingCount="2" stopTime="0.00" timeLoss="74.59" rerouteNo="0" devices="tripinfo_flow_passenger_sn.2" vType="passenger" speedFactor="0.90" vaporized=""/>
    <tripinfo id="flow_passenger_se.6" depart="74.00" departLane="1053267667#3_1" departPos="72.01" departSpeed="0.16" departDelay="32.00" arrival="94.00" arrivalLane="563175146#1_2" arrivalPos="228.90" arrivalSpeed="19.49" duration="20.00" routeLength="290.68" waitingTime="0.00" waitingCount="0" stopTime="0.00" timeLoss="4.12" rerouteNo="0" devices="tripinfo_flow_passenger_se.6" vType="passenger" speedFactor="0.96" vaporized=""/>